# vtk DataFile Version 2.0
salt_small_final                                                                                                                                                                                                                                                
ASCII
DATASET RECTILINEAR_GRID
DIMENSIONS       10      1     10
X_COORDINATES       10 float
    0.500000E+00    0.150000E+01    0.250000E+01    0.350000E+01    0.450000E+01    0.550000E+01    0.650000E+01    0.750000E+01    0.850000E+01    0.950000E+01
Y_COORDINATES        1 float
    0.500000E+00
Z_COORDINATES       10 float
    0.500000E+00    0.150000E+01    0.250000E+01    0.350000E+01    0.450000E+01    0.550000E+01    0.650000E+01    0.750000E+01    0.850000E+01    0.950000E+01

POINT_DATA     100
SCALARS uindex int 1
LOOKUP_TABLE default
         1         1         1         1         1         1         1         1         1         1         1         1         1         1         1         1         1         1         1         1         1         1         1         1         1
         1         1         1         1         1         1         1         1         1         1         1         1         1         1         1         1         1         1         1         1         1         1         1         1         1
         1         1         1         1         1         1         1         1         1         1         1         1         1         1         1         1         1         1         1         1         1         1         1         1         1
         1         1         1         1         1         1         1         1         1         1         1         1         1         1         1         1         1         1         1         1         1         1         1         1         1
SCALARS por float 1
LOOKUP_TABLE default
    0.350000E+00    0.350000E+00    0.350000E+00    0.350000E+00    0.350000E+00    0.350000E+00    0.350000E+00    0.350000E+00    0.350000E+00    0.350000E+00
    0.350000E+00    0.350000E+00    0.350000E+00    0.350000E+00    0.350000E+00    0.350000E+00    0.350000E+00    0.350000E+00    0.350000E+00    0.350000E+00
    0.350000E+00    0.350000E+00    0.350000E+00    0.350000E+00    0.350000E+00    0.350000E+00    0.350000E+00    0.350000E+00    0.350000E+00    0.350000E+00
    0.350000E+00    0.350000E+00    0.350000E+00    0.350000E+00    0.350000E+00    0.350000E+00    0.350000E+00    0.350000E+00    0.350000E+00    0.350000E+00
    0.350000E+00    0.350000E+00    0.350000E+00    0.350000E+00    0.350000E+00    0.350000E+00    0.350000E+00    0.350000E+00    0.350000E+00    0.350000E+00
    0.350000E+00    0.350000E+00    0.350000E+00    0.350000E+00    0.350000E+00    0.350000E+00    0.350000E+00    0.350000E+00    0.350000E+00    0.350000E+00
    0.350000E+00    0.350000E+00    0.350000E+00    0.350000E+00    0.350000E+00    0.350000E+00    0.350000E+00    0.350000E+00    0.350000E+00    0.350000E+00
    0.350000E+00    0.350000E+00    0.350000E+00    0.350000E+00    0.350000E+00    0.350000E+00    0.350000E+00    0.350000E+00    0.350000E+00    0.350000E+00
    0.350000E+00    0.350000E+00    0.350000E+00    0.350000E+00    0.350000E+00    0.350000E+00    0.350000E+00    0.350000E+00    0.350000E+00    0.350000E+00
    0.350000E+00    0.350000E+00    0.350000E+00    0.350000E+00    0.350000E+00    0.350000E+00    0.350000E+00    0.350000E+00    0.350000E+00    0.350000E+00
SCALARS head float 1
LOOKUP_TABLE default
    0.400125E+02    0.400126E+02    0.400128E+02    0.400130E+02    0.400131E+02    0.400131E+02    0.400130E+02    0.400128E+02    0.400126E+02    0.400125E+02
    0.400104E+02    0.400105E+02    0.400106E+02    0.400108E+02    0.400109E+02    0.400109E+02    0.400108E+02    0.400106E+02    0.400105E+02    0.400104E+02
    0.400080E+02    0.400081E+02    0.400082E+02    0.400083E+02    0.400083E+02    0.400083E+02    0.400083E+02    0.400082E+02    0.400081E+02    0.400080E+02
    0.400052E+02    0.400053E+02    0.400053E+02    0.400054E+02    0.400054E+02    0.400054E+02    0.400054E+02    0.400053E+02    0.400053E+02    0.400052E+02
    0.400021E+02    0.400021E+02    0.400021E+02    0.400021E+02    0.400022E+02    0.400022E+02    0.400021E+02    0.400021E+02    0.400021E+02    0.400021E+02
    0.399987E+02    0.399987E+02    0.399987E+02    0.399987E+02    0.399987E+02    0.399987E+02    0.399987E+02    0.399987E+02    0.399987E+02    0.399987E+02
    0.399953E+02    0.399953E+02    0.399952E+02    0.399952E+02    0.399951E+02    0.399951E+02    0.399952E+02    0.399952E+02    0.399953E+02    0.399953E+02
    0.399921E+02    0.399920E+02    0.399919E+02    0.399919E+02    0.399918E+02    0.399918E+02    0.399919E+02    0.399919E+02    0.399920E+02    0.399921E+02
    0.399892E+02    0.399891E+02    0.399890E+02    0.399888E+02    0.399887E+02    0.399887E+02    0.399888E+02    0.399890E+02    0.399891E+02    0.399892E+02
    0.399865E+02    0.399864E+02    0.399862E+02    0.399860E+02    0.399859E+02    0.399859E+02    0.399860E+02    0.399862E+02    0.399864E+02    0.399865E+02
SCALARS pres float 1
LOOKUP_TABLE default
    0.487500E+00    0.487529E+00    0.487575E+00    0.487620E+00    0.487648E+00    0.487648E+00    0.487620E+00    0.487575E+00    0.487529E+00    0.487500E+00
    0.477742E+00    0.477775E+00    0.477827E+00    0.477878E+00    0.477910E+00    0.477910E+00    0.477878E+00    0.477827E+00    0.477775E+00    0.477742E+00
    0.468027E+00    0.468066E+00    0.468129E+00    0.468191E+00    0.468230E+00    0.468230E+00    0.468191E+00    0.468129E+00    0.468066E+00    0.468027E+00
    0.458316E+00    0.458362E+00    0.458436E+00    0.458509E+00    0.458554E+00    0.458554E+00    0.458509E+00    0.458436E+00    0.458362E+00    0.458316E+00
    0.448569E+00    0.448619E+00    0.448699E+00    0.448779E+00    0.448827E+00    0.448827E+00    0.448779E+00    0.448699E+00    0.448619E+00    0.448569E+00
    0.438759E+00    0.438808E+00    0.438887E+00    0.438965E+00    0.439014E+00    0.439014E+00    0.438965E+00    0.438887E+00    0.438808E+00    0.438759E+00
    0.428882E+00    0.428926E+00    0.428998E+00    0.429068E+00    0.429112E+00    0.429112E+00    0.429068E+00    0.428998E+00    0.428926E+00    0.428882E+00
    0.418964E+00    0.419001E+00    0.419061E+00    0.419120E+00    0.419157E+00    0.419157E+00    0.419120E+00    0.419061E+00    0.419001E+00    0.418964E+00
    0.409043E+00    0.409074E+00    0.409122E+00    0.409171E+00    0.409201E+00    0.409201E+00    0.409171E+00    0.409122E+00    0.409074E+00    0.409043E+00
    0.399156E+00    0.399182E+00    0.399223E+00    0.399264E+00    0.399289E+00    0.399289E+00    0.399264E+00    0.399223E+00    0.399182E+00    0.399156E+00
SCALARS kx float 1
LOOKUP_TABLE default
   -0.110000E+02   -0.110000E+02   -0.110000E+02   -0.110000E+02   -0.110000E+02   -0.110000E+02   -0.110000E+02   -0.110000E+02   -0.110000E+02   -0.110000E+02
   -0.110000E+02   -0.110000E+02   -0.110000E+02   -0.110000E+02   -0.110000E+02   -0.110000E+02   -0.110000E+02   -0.110000E+02   -0.110000E+02   -0.110000E+02
   -0.110000E+02   -0.110000E+02   -0.110000E+02   -0.110000E+02   -0.110000E+02   -0.110000E+02   -0.110000E+02   -0.110000E+02   -0.110000E+02   -0.110000E+02
   -0.110000E+02   -0.110000E+02   -0.110000E+02   -0.110000E+02   -0.110000E+02   -0.110000E+02   -0.110000E+02   -0.110000E+02   -0.110000E+02   -0.110000E+02
   -0.110000E+02   -0.110000E+02   -0.110000E+02   -0.110000E+02   -0.110000E+02   -0.110000E+02   -0.110000E+02   -0.110000E+02   -0.110000E+02   -0.110000E+02
   -0.110000E+02   -0.110000E+02   -0.110000E+02   -0.110000E+02   -0.110000E+02   -0.110000E+02   -0.110000E+02   -0.110000E+02   -0.110000E+02   -0.110000E+02
   -0.110000E+02   -0.110000E+02   -0.110000E+02   -0.110000E+02   -0.110000E+02   -0.110000E+02   -0.110000E+02   -0.110000E+02   -0.110000E+02   -0.110000E+02
   -0.110000E+02   -0.110000E+02   -0.110000E+02   -0.110000E+02   -0.110000E+02   -0.110000E+02   -0.110000E+02   -0.110000E+02   -0.110000E+02   -0.110000E+02
   -0.110000E+02   -0.110000E+02   -0.110000E+02   -0.110000E+02   -0.110000E+02   -0.110000E+02   -0.110000E+02   -0.110000E+02   -0.110000E+02   -0.110000E+02
   -0.110000E+02   -0.110000E+02   -0.110000E+02   -0.110000E+02   -0.110000E+02   -0.110000E+02   -0.110000E+02   -0.110000E+02   -0.110000E+02   -0.110000E+02
SCALARS ky float 1
LOOKUP_TABLE default
   -0.110000E+02   -0.110000E+02   -0.110000E+02   -0.110000E+02   -0.110000E+02   -0.110000E+02   -0.110000E+02   -0.110000E+02   -0.110000E+02   -0.110000E+02
   -0.110000E+02   -0.110000E+02   -0.110000E+02   -0.110000E+02   -0.110000E+02   -0.110000E+02   -0.110000E+02   -0.110000E+02   -0.110000E+02   -0.110000E+02
   -0.110000E+02   -0.110000E+02   -0.110000E+02   -0.110000E+02   -0.110000E+02   -0.110000E+02   -0.110000E+02   -0.110000E+02   -0.110000E+02   -0.110000E+02
   -0.110000E+02   -0.110000E+02   -0.110000E+02   -0.110000E+02   -0.110000E+02   -0.110000E+02   -0.110000E+02   -0.110000E+02   -0.110000E+02   -0.110000E+02
   -0.110000E+02   -0.110000E+02   -0.110000E+02   -0.110000E+02   -0.110000E+02   -0.110000E+02   -0.110000E+02   -0.110000E+02   -0.110000E+02   -0.110000E+02
   -0.110000E+02   -0.110000E+02   -0.110000E+02   -0.110000E+02   -0.110000E+02   -0.110000E+02   -0.110000E+02   -0.110000E+02   -0.110000E+02   -0.110000E+02
   -0.110000E+02   -0.110000E+02   -0.110000E+02   -0.110000E+02   -0.110000E+02   -0.110000E+02   -0.110000E+02   -0.110000E+02   -0.110000E+02   -0.110000E+02
   -0.110000E+02   -0.110000E+02   -0.110000E+02   -0.110000E+02   -0.110000E+02   -0.110000E+02   -0.110000E+02   -0.110000E+02   -0.110000E+02   -0.110000E+02
   -0.110000E+02   -0.110000E+02   -0.110000E+02   -0.110000E+02   -0.110000E+02   -0.110000E+02   -0.110000E+02   -0.110000E+02   -0.110000E+02   -0.110000E+02
   -0.110000E+02   -0.110000E+02   -0.110000E+02   -0.110000E+02   -0.110000E+02   -0.110000E+02   -0.110000E+02   -0.110000E+02   -0.110000E+02   -0.110000E+02
SCALARS kz float 1
LOOKUP_TABLE default
   -0.110000E+02   -0.110000E+02   -0.110000E+02   -0.110000E+02   -0.110000E+02   -0.110000E+02   -0.110000E+02   -0.110000E+02   -0.110000E+02   -0.110000E+02
   -0.110000E+02   -0.110000E+02   -0.110000E+02   -0.110000E+02   -0.110000E+02   -0.110000E+02   -0.110000E+02   -0.110000E+02   -0.110000E+02   -0.110000E+02
   -0.110000E+02   -0.110000E+02   -0.110000E+02   -0.110000E+02   -0.110000E+02   -0.110000E+02   -0.110000E+02   -0.110000E+02   -0.110000E+02   -0.110000E+02
   -0.110000E+02   -0.110000E+02   -0.110000E+02   -0.110000E+02   -0.110000E+02   -0.110000E+02   -0.110000E+02   -0.110000E+02   -0.110000E+02   -0.110000E+02
   -0.110000E+02   -0.110000E+02   -0.110000E+02   -0.110000E+02   -0.110000E+02   -0.110000E+02   -0.110000E+02   -0.110000E+02   -0.110000E+02   -0.110000E+02
   -0.110000E+02   -0.110000E+02   -0.110000E+02   -0.110000E+02   -0.110000E+02   -0.110000E+02   -0.110000E+02   -0.110000E+02   -0.110000E+02   -0.110000E+02
   -0.110000E+02   -0.110000E+02   -0.110000E+02   -0.110000E+02   -0.110000E+02   -0.110000E+02   -0.110000E+02   -0.110000E+02   -0.110000E+02   -0.110000E+02
   -0.110000E+02   -0.110000E+02   -0.110000E+02   -0.110000E+02   -0.110000E+02   -0.110000E+02   -0.110000E+02   -0.110000E+02   -0.110000E+02   -0.110000E+02
   -0.110000E+02   -0.110000E+02   -0.110000E+02   -0.110000E+02   -0.110000E+02   -0.110000E+02   -0.110000E+02   -0.110000E+02   -0.110000E+02   -0.110000E+02
   -0.110000E+02   -0.110000E+02   -0.110000E+02   -0.110000E+02   -0.110000E+02   -0.110000E+02   -0.110000E+02   -0.110000E+02   -0.110000E+02   -0.110000E+02
SCALARS rhof float 1
LOOKUP_TABLE default
    0.999874E+03    0.999945E+03    0.100006E+04    0.100017E+04    0.100024E+04    0.100024E+04    0.100017E+04    0.100006E+04    0.999945E+03    0.999874E+03
    0.100005E+04    0.100014E+04    0.100027E+04    0.100040E+04    0.100049E+04    0.100049E+04    0.100040E+04    0.100027E+04    0.100014E+04    0.100005E+04
    0.100037E+04    0.100047E+04    0.100064E+04    0.100081E+04    0.100091E+04    0.100091E+04    0.100081E+04    0.100064E+04    0.100047E+04    0.100037E+04
    0.100072E+04    0.100085E+04    0.100105E+04    0.100126E+04    0.100138E+04    0.100138E+04    0.100126E+04    0.100105E+04    0.100085E+04    0.100072E+04
    0.100100E+04    0.100115E+04    0.100138E+04    0.100160E+04    0.100174E+04    0.100174E+04    0.100160E+04    0.100138E+04    0.100115E+04    0.100100E+04
    0.100112E+04    0.100127E+04    0.100150E+04    0.100173E+04    0.100187E+04    0.100187E+04    0.100173E+04    0.100150E+04    0.100127E+04    0.100112E+04
    0.100104E+04    0.100118E+04    0.100140E+04    0.100161E+04    0.100175E+04    0.100175E+04    0.100161E+04    0.100140E+04    0.100118E+04    0.100104E+04
    0.100083E+04    0.100094E+04    0.100113E+04    0.100132E+04    0.100144E+04    0.100144E+04    0.100132E+04    0.100113E+04    0.100094E+04    0.100083E+04
    0.100058E+04    0.100068E+04    0.100084E+04    0.100100E+04    0.100110E+04    0.100110E+04    0.100100E+04    0.100084E+04    0.100068E+04    0.100058E+04
    0.100041E+04    0.100050E+04    0.100065E+04    0.100079E+04    0.100088E+04    0.100088E+04    0.100079E+04    0.100065E+04    0.100050E+04    0.100041E+04
SCALARS tracer1 float 1
LOOKUP_TABLE default
    0.335009E-01    0.353109E-01    0.382220E-01    0.411110E-01    0.428855E-01    0.428855E-01    0.411110E-01    0.382220E-01    0.353109E-01    0.335009E-01
    0.382161E-01    0.403450E-01    0.437717E-01    0.471759E-01    0.492683E-01    0.492683E-01    0.471759E-01    0.437717E-01    0.403450E-01    0.382161E-01
    0.463529E-01    0.490189E-01    0.533120E-01    0.575785E-01    0.602018E-01    0.602018E-01    0.575785E-01    0.533120E-01    0.490189E-01    0.463529E-01
    0.555191E-01    0.587585E-01    0.639736E-01    0.691548E-01    0.723396E-01    0.723396E-01    0.691548E-01    0.639736E-01    0.587585E-01    0.555191E-01
    0.628201E-01    0.664607E-01    0.723183E-01    0.781338E-01    0.817064E-01    0.817064E-01    0.781338E-01    0.723183E-01    0.664607E-01    0.628201E-01
    0.659023E-01    0.696239E-01    0.756089E-01    0.815472E-01    0.851935E-01    0.851935E-01    0.815472E-01    0.756089E-01    0.696239E-01    0.659023E-01
    0.640470E-01    0.675182E-01    0.731001E-01    0.786378E-01    0.820380E-01    0.820380E-01    0.786378E-01    0.731001E-01    0.675182E-01    0.640470E-01
    0.586051E-01    0.616251E-01    0.664845E-01    0.713094E-01    0.742738E-01    0.742738E-01    0.713094E-01    0.664845E-01    0.616251E-01    0.586050E-01
    0.523841E-01    0.549520E-01    0.590899E-01    0.632061E-01    0.657389E-01    0.657389E-01    0.632061E-01    0.590899E-01    0.549520E-01    0.523841E-01
    0.483480E-01    0.506402E-01    0.543401E-01    0.580281E-01    0.603013E-01    0.603013E-01    0.580281E-01    0.543401E-01    0.506402E-01    0.483480E-01
VECTORS v float
   -0.109243E-07    0.000000E+00    0.109243E-07
   -0.142793E-07    0.000000E+00    0.670998E-08
   -0.176084E-07    0.000000E+00   -0.517270E-10
   -0.142116E-07    0.000000E+00   -0.674192E-08
   -0.542032E-08    0.000000E+00   -0.108406E-07
    0.542032E-08    0.000000E+00   -0.108406E-07
    0.142116E-07    0.000000E+00   -0.674192E-08
    0.176084E-07    0.000000E+00   -0.517281E-10
    0.142793E-07    0.000000E+00    0.670998E-08
    0.109243E-07    0.000000E+00    0.109243E-07
   -0.764555E-08    0.000000E+00    0.147471E-07
   -0.999732E-08    0.000000E+00    0.906175E-08
   -0.123356E-07    0.000000E+00   -0.652497E-10
   -0.996192E-08    0.000000E+00   -0.910204E-08
   -0.380090E-08    0.000000E+00   -0.146415E-07
    0.380090E-08    0.000000E+00   -0.146415E-07
    0.996192E-08    0.000000E+00   -0.910204E-08
    0.123356E-07    0.000000E+00   -0.652511E-10
    0.999732E-08    0.000000E+00    0.906175E-08
    0.764555E-08    0.000000E+00    0.147471E-07
   -0.569244E-08    0.000000E+00    0.214161E-07
   -0.744189E-08    0.000000E+00    0.131630E-07
   -0.917933E-08    0.000000E+00   -0.907766E-10
   -0.741046E-08    0.000000E+00   -0.132190E-07
   -0.282680E-08    0.000000E+00   -0.212692E-07
    0.282680E-08    0.000000E+00   -0.212692E-07
    0.741047E-08    0.000000E+00   -0.132190E-07
    0.917933E-08    0.000000E+00   -0.907786E-10
    0.744189E-08    0.000000E+00    0.131630E-07
    0.569244E-08    0.000000E+00    0.214161E-07
   -0.384844E-08    0.000000E+00    0.261865E-07
   -0.502843E-08    0.000000E+00    0.160924E-07
   -0.619693E-08    0.000000E+00   -0.114276E-09
   -0.499834E-08    0.000000E+00   -0.161630E-07
   -0.190563E-08    0.000000E+00   -0.260016E-07
    0.190563E-08    0.000000E+00   -0.260016E-07
    0.499834E-08    0.000000E+00   -0.161630E-07
    0.619693E-08    0.000000E+00   -0.114278E-09
    0.502843E-08    0.000000E+00    0.160924E-07
    0.384844E-08    0.000000E+00    0.261865E-07
   -0.167401E-08    0.000000E+00    0.289477E-07
   -0.218521E-08    0.000000E+00    0.177836E-07
   -0.268888E-08    0.000000E+00   -0.133302E-09
   -0.216550E-08    0.000000E+00   -0.178659E-07
   -0.824823E-09    0.000000E+00   -0.287321E-07
    0.824825E-09    0.000000E+00   -0.287321E-07
    0.216550E-08    0.000000E+00   -0.178659E-07
    0.268888E-08    0.000000E+00   -0.133305E-09
    0.218521E-08    0.000000E+00    0.177836E-07
    0.167401E-08    0.000000E+00    0.289478E-07
    0.742163E-09    0.000000E+00    0.294137E-07
    0.971294E-09    0.000000E+00    0.180657E-07
    0.120010E-08    0.000000E+00   -0.140508E-09
    0.970441E-09    0.000000E+00   -0.181524E-07
    0.370554E-09    0.000000E+00   -0.291864E-07
   -0.370553E-09    0.000000E+00   -0.291864E-07
   -0.970440E-09    0.000000E+00   -0.181524E-07
   -0.120010E-08    0.000000E+00   -0.140510E-09
   -0.971294E-09    0.000000E+00    0.180657E-07
   -0.742163E-09    0.000000E+00    0.294137E-07
    0.312071E-08    0.000000E+00    0.274822E-07
    0.407756E-08    0.000000E+00    0.168797E-07
    0.502505E-08    0.000000E+00   -0.130827E-09
    0.405307E-08    0.000000E+00   -0.169604E-07
    0.154522E-08    0.000000E+00   -0.272706E-07
   -0.154522E-08    0.000000E+00   -0.272706E-07
   -0.405307E-08    0.000000E+00   -0.169604E-07
   -0.502505E-08    0.000000E+00   -0.130828E-09
   -0.407756E-08    0.000000E+00    0.168797E-07
   -0.312071E-08    0.000000E+00    0.274822E-07
    0.539334E-08    0.000000E+00    0.232252E-07
    0.704700E-08    0.000000E+00    0.142692E-07
    0.868453E-08    0.000000E+00   -0.105360E-09
    0.700482E-08    0.000000E+00   -0.143342E-07
    0.267061E-08    0.000000E+00   -0.230548E-07
   -0.267061E-08    0.000000E+00   -0.230548E-07
   -0.700482E-08    0.000000E+00   -0.143342E-07
   -0.868453E-08    0.000000E+00   -0.105361E-09
   -0.704700E-08    0.000000E+00    0.142692E-07
   -0.539334E-08    0.000000E+00    0.232252E-07
    0.806010E-08    0.000000E+00    0.164985E-07
    0.105350E-07    0.000000E+00    0.101407E-07
    0.129903E-07    0.000000E+00   -0.696415E-10
    0.104837E-07    0.000000E+00   -0.101836E-07
    0.399833E-08    0.000000E+00   -0.163858E-07
   -0.399833E-08    0.000000E+00   -0.163858E-07
   -0.104837E-07    0.000000E+00   -0.101836E-07
   -0.129903E-07    0.000000E+00   -0.696420E-10
   -0.105350E-07    0.000000E+00    0.101407E-07
   -0.806010E-08    0.000000E+00    0.164985E-07
    0.124684E-07    0.000000E+00    0.124684E-07
    0.163013E-07    0.000000E+00    0.766576E-08
    0.201092E-07    0.000000E+00   -0.500348E-10
    0.162358E-07    0.000000E+00   -0.769664E-08
    0.619375E-08    0.000000E+00   -0.123875E-07
   -0.619375E-08    0.000000E+00   -0.123875E-07
   -0.162358E-07    0.000000E+00   -0.769664E-08
   -0.201092E-07    0.000000E+00   -0.500351E-10
   -0.163013E-07    0.000000E+00    0.766576E-08
   -0.124684E-07    0.000000E+00    0.124684E-07
