title = "h_init_final"
variables = "i",  "j",  "k", "x",            "y",            "z", "uindex",   "obsz","obst","cindex",           "head",           "temp",           "pres",           "satn",           "epot",           "vx",           "vy",           "vz",          "por",           "kx",           "ky",           "kz",           "lx",           "ly",           "lz",         "rhof",         "visf",          "qxc",          "qyc",          "qzc",        "sigma",           "lc",          "src",          "jxc",          "jyc",          "jzc"
zone i=   50, j=    1, k=   50, f=point
     1     1     1    5.00000         5.00000         5.00000              1       0       0       0   0.49555721E+03    0.20000000E+02    0.49027415E+01    0.00000000E+00    0.000000E+00    0.222822E-26    0.000000E+00   -0.828255E-27    0.150000E+00   -0.200000E+02   -0.200000E+02   -0.200000E+02    0.195105E+01    0.195105E+01    0.195105E+01    0.100043E+04    0.100147E-02   -0.000000E+00    0.000000E+00   -0.000000E+00    0.100000E-01    0.147213E-04   -0.236001E-16   -0.000000E+00    0.000000E+00   -0.000000E+00
     2     1     1    15.0000         5.00000         5.00000              1       0       0       0   0.49555721E+03    0.20000000E+02    0.49027415E+01    0.00000000E+00    0.000000E+00    0.334233E-26    0.000000E+00   -0.305639E-26    0.150000E+00   -0.200000E+02   -0.200000E+02   -0.200000E+02    0.195105E+01    0.195105E+01    0.195105E+01    0.100043E+04    0.100147E-02   -0.000000E+00    0.000000E+00   -0.000000E+00    0.100000E-01    0.147213E-04   -0.236001E-16   -0.000000E+00    0.000000E+00   -0.000000E+00
     3     1     1    25.0000         5.00000         5.00000              1       0       0       0   0.49555721E+03    0.20000000E+02    0.49027415E+01    0.00000000E+00    0.000000E+00    0.445644E-26    0.000000E+00   -0.194232E-26    0.150000E+00   -0.200000E+02   -0.200000E+02   -0.200000E+02    0.195105E+01    0.195105E+01    0.195105E+01    0.100043E+04    0.100147E-02   -0.000000E+00    0.000000E+00   -0.000000E+00    0.100000E-01    0.147213E-04   -0.236001E-16   -0.000000E+00    0.000000E+00   -0.000000E+00
     4     1     1    35.0000         5.00000         5.00000              1       0       0       0   0.49555721E+03    0.20000000E+02    0.49027415E+01    0.00000000E+00    0.000000E+00    0.557054E-26    0.000000E+00    0.139988E-26    0.150000E+00   -0.200000E+02   -0.200000E+02   -0.200000E+02    0.195105E+01    0.195105E+01    0.195105E+01    0.100043E+04    0.100147E-02   -0.000000E+00    0.000000E+00   -0.000000E+00    0.100000E-01    0.147213E-04   -0.236001E-16   -0.000000E+00    0.000000E+00   -0.000000E+00
     5     1     1    45.0000         5.00000         5.00000              1       0       0       0   0.49555721E+03    0.20000000E+02    0.49027415E+01    0.00000000E+00    0.000000E+00    0.696318E-26    0.000000E+00    0.865134E-27    0.150000E+00   -0.200000E+02   -0.200000E+02   -0.200000E+02    0.195105E+01    0.195105E+01    0.195105E+01    0.100043E+04    0.100147E-02   -0.000000E+00    0.000000E+00   -0.000000E+00    0.100000E-01    0.147213E-04   -0.236001E-16   -0.000000E+00    0.000000E+00   -0.000000E+00
     6     1     1    55.0000         5.00000         5.00000              1       0       0       0   0.49555721E+03    0.20000000E+02    0.49027415E+01    0.00000000E+00    0.000000E+00    0.557054E-26    0.000000E+00   -0.248935E-27    0.150000E+00   -0.200000E+02   -0.200000E+02   -0.200000E+02    0.195105E+01    0.195105E+01    0.195105E+01    0.100043E+04    0.100147E-02   -0.000000E+00    0.000000E+00   -0.000000E+00    0.100000E-01    0.147213E-04   -0.236001E-16   -0.000000E+00    0.000000E+00   -0.000000E+00
     7     1     1    65.0000         5.00000         5.00000              1       0       0       0   0.49555721E+03    0.20000000E+02    0.49027415E+01    0.00000000E+00    0.000000E+00    0.362085E-26    0.000000E+00    0.285765E-27    0.150000E+00   -0.200000E+02   -0.200000E+02   -0.200000E+02    0.195105E+01    0.195105E+01    0.195105E+01    0.100043E+04    0.100147E-02   -0.000000E+00    0.000000E+00   -0.000000E+00    0.100000E-01    0.147213E-04   -0.236001E-16   -0.000000E+00    0.000000E+00   -0.000000E+00
     8     1     1    75.0000         5.00000         5.00000              1       0       0       0   0.49555721E+03    0.20000000E+02    0.49027415E+01    0.00000000E+00    0.000000E+00    0.362085E-26    0.000000E+00    0.865134E-27    0.150000E+00   -0.200000E+02   -0.200000E+02   -0.200000E+02    0.195105E+01    0.195105E+01    0.195105E+01    0.100043E+04    0.100147E-02   -0.000000E+00    0.000000E+00   -0.000000E+00    0.100000E-01    0.147213E-04   -0.236001E-16   -0.000000E+00    0.000000E+00   -0.000000E+00
     9     1     1    85.0000         5.00000         5.00000              1       0       0       0   0.49555721E+03    0.20000000E+02    0.49027415E+01    0.00000000E+00    0.000000E+00    0.362085E-26    0.000000E+00   -0.248935E-27    0.150000E+00   -0.200000E+02   -0.200000E+02   -0.200000E+02    0.195105E+01    0.195105E+01    0.195105E+01    0.100043E+04    0.100147E-02   -0.000000E+00    0.000000E+00   -0.000000E+00    0.100000E-01    0.147213E-04   -0.236001E-16   -0.000000E+00    0.000000E+00   -0.000000E+00
    10     1     1    95.0000         5.00000         5.00000              1       0       0       0   0.49555721E+03    0.20000000E+02    0.49027415E+01    0.00000000E+00    0.000000E+00    0.278527E-26    0.000000E+00    0.842799E-27    0.150000E+00   -0.200000E+02   -0.200000E+02   -0.200000E+02    0.195105E+01    0.195105E+01    0.195105E+01    0.100043E+04    0.100147E-02   -0.000000E+00    0.000000E+00   -0.000000E+00    0.100000E-01    0.147213E-04   -0.236001E-16   -0.000000E+00    0.000000E+00   -0.000000E+00
    11     1     1    105.000         5.00000         5.00000              1       0       0       0   0.49555721E+03    0.20000000E+02    0.49027415E+01    0.00000000E+00    0.000000E+00    0.194969E-26    0.000000E+00   -0.271270E-27    0.150000E+00   -0.200000E+02   -0.200000E+02   -0.200000E+02    0.195105E+01    0.195105E+01    0.195105E+01    0.100043E+04    0.100147E-02   -0.000000E+00    0.000000E+00   -0.000000E+00    0.100000E-01    0.147213E-04   -0.236001E-16   -0.000000E+00    0.000000E+00   -0.000000E+00
    12     1     1    115.000         5.00000         5.00000              1       0       0       0   0.49555721E+03    0.20000000E+02    0.49027415E+01    0.00000000E+00    0.000000E+00    0.194969E-26    0.000000E+00   -0.271171E-27    0.150000E+00   -0.200000E+02   -0.200000E+02   -0.200000E+02    0.195105E+01    0.195105E+01    0.195105E+01    0.100043E+04    0.100147E-02   -0.000000E+00    0.000000E+00   -0.000000E+00    0.100000E-01    0.147213E-04   -0.236001E-16   -0.000000E+00    0.000000E+00   -0.000000E+00
    13     1     1    125.000         5.00000         5.00000              1       0       0       0   0.49555721E+03    0.20000000E+02    0.49027415E+01    0.00000000E+00    0.000000E+00    0.278527E-26    0.000000E+00    0.842898E-27    0.150000E+00   -0.200000E+02   -0.200000E+02   -0.200000E+02    0.195105E+01    0.195105E+01    0.195105E+01    0.100043E+04    0.100147E-02   -0.000000E+00    0.000000E+00   -0.000000E+00    0.100000E-01    0.147213E-04   -0.236001E-16   -0.000000E+00    0.000000E+00   -0.000000E+00
    14     1     1    135.000         5.00000         5.00000              1       0       0       0   0.49555721E+03    0.20000000E+02    0.49027415E+01    0.00000000E+00    0.000000E+00    0.334233E-26    0.000000E+00   -0.136300E-26    0.150000E+00   -0.200000E+02   -0.200000E+02   -0.200000E+02    0.195105E+01    0.195105E+01    0.195105E+01    0.100043E+04    0.100147E-02   -0.000000E+00    0.000000E+00   -0.000000E+00    0.100000E-01    0.147213E-04   -0.236001E-16   -0.000000E+00    0.000000E+00   -0.000000E+00
    15     1     1    145.000         5.00000         5.00000              1       0       0       0   0.49555721E+03    0.20000000E+02    0.49027415E+01    0.00000000E+00    0.000000E+00    0.306380E-26    0.000000E+00    0.842898E-27    0.150000E+00   -0.200000E+02   -0.200000E+02   -0.200000E+02    0.195105E+01    0.195105E+01    0.195105E+01    0.100043E+04    0.100147E-02   -0.000000E+00    0.000000E+00   -0.000000E+00    0.100000E-01    0.147213E-04   -0.236001E-16   -0.000000E+00    0.000000E+00   -0.000000E+00
    16     1     1    155.000         5.00000         5.00000              1       0       0       0   0.49555721E+03    0.20000000E+02    0.49027415E+01    0.00000000E+00    0.000000E+00    0.194969E-26    0.000000E+00    0.285863E-27    0.150000E+00   -0.200000E+02   -0.200000E+02   -0.200000E+02    0.195105E+01    0.195105E+01    0.195105E+01    0.100043E+04    0.100147E-02   -0.000000E+00    0.000000E+00   -0.000000E+00    0.100000E-01    0.147213E-04   -0.236001E-16   -0.000000E+00    0.000000E+00   -0.000000E+00
    17     1     1    165.000         5.00000         5.00000              1       0       0       0   0.49555721E+03    0.20000000E+02    0.49027415E+01    0.00000000E+00    0.000000E+00    0.835582E-27    0.000000E+00    0.865134E-27    0.150000E+00   -0.200000E+02   -0.200000E+02   -0.200000E+02    0.195105E+01    0.195105E+01    0.195105E+01    0.100043E+04    0.100147E-02   -0.000000E+00    0.000000E+00   -0.000000E+00    0.100000E-01    0.147213E-04   -0.236001E-16   -0.000000E+00    0.000000E+00   -0.000000E+00
    18     1     1    175.000         5.00000         5.00000              1       0       0       0   0.49555721E+03    0.20000000E+02    0.49027415E+01    0.00000000E+00    0.000000E+00   -0.557054E-27    0.000000E+00   -0.260127E-27    0.150000E+00   -0.200000E+02   -0.200000E+02   -0.200000E+02    0.195105E+01    0.195105E+01    0.195105E+01    0.100043E+04    0.100147E-02   -0.000000E+00    0.000000E+00   -0.000000E+00    0.100000E-01    0.147213E-04   -0.236001E-16   -0.000000E+00    0.000000E+00   -0.000000E+00
    19     1     1    185.000         5.00000         5.00000              1       0       0       0   0.49555721E+03    0.20000000E+02    0.49027415E+01    0.00000000E+00    0.000000E+00   -0.557054E-27    0.000000E+00   -0.817161E-27    0.150000E+00   -0.200000E+02   -0.200000E+02   -0.200000E+02    0.195105E+01    0.195105E+01    0.195105E+01    0.100043E+04    0.100147E-02   -0.000000E+00    0.000000E+00   -0.000000E+00    0.100000E-01    0.147213E-04   -0.236001E-16   -0.000000E+00    0.000000E+00   -0.000000E+00
    20     1     1    195.000         5.00000         5.00000              1       0       0       0   0.49555721E+03    0.20000000E+02    0.49027415E+01    0.00000000E+00    0.000000E+00    0.111411E-26    0.000000E+00   -0.805969E-27    0.150000E+00   -0.200000E+02   -0.200000E+02   -0.200000E+02    0.195105E+01    0.195105E+01    0.195105E+01    0.100043E+04    0.100147E-02   -0.000000E+00    0.000000E+00   -0.000000E+00    0.100000E-01    0.147213E-04   -0.236001E-16   -0.000000E+00    0.000000E+00   -0.000000E+00
    21     1     1    205.000         5.00000         5.00000              1       0       0       0   0.49555721E+03    0.20000000E+02    0.49027415E+01    0.00000000E+00    0.000000E+00    0.111411E-26    0.000000E+00    0.296908E-27    0.150000E+00   -0.200000E+02   -0.200000E+02   -0.200000E+02    0.195105E+01    0.195105E+01    0.195105E+01    0.100043E+04    0.100147E-02   -0.000000E+00    0.000000E+00   -0.000000E+00    0.100000E-01    0.147213E-04   -0.236001E-16   -0.000000E+00    0.000000E+00   -0.000000E+00
    22     1     1    215.000         5.00000         5.00000              1       0       0       0   0.49555721E+03    0.20000000E+02    0.49027415E+01    0.00000000E+00    0.000000E+00    0.557054E-27    0.000000E+00   -0.248935E-27    0.150000E+00   -0.200000E+02   -0.200000E+02   -0.200000E+02    0.195105E+01    0.195105E+01    0.195105E+01    0.100043E+04    0.100147E-02   -0.000000E+00    0.000000E+00   -0.000000E+00    0.100000E-01    0.147213E-04   -0.236001E-16   -0.000000E+00    0.000000E+00   -0.000000E+00
    23     1     1    225.000         5.00000         5.00000              1       0       0       0   0.49555721E+03    0.20000000E+02    0.49027415E+01    0.00000000E+00    0.000000E+00    0.139264E-26    0.000000E+00    0.296957E-27    0.150000E+00   -0.200000E+02   -0.200000E+02   -0.200000E+02    0.195105E+01    0.195105E+01    0.195105E+01    0.100043E+04    0.100147E-02   -0.000000E+00    0.000000E+00   -0.000000E+00    0.100000E-01    0.147213E-04   -0.236001E-16   -0.000000E+00    0.000000E+00   -0.000000E+00
    24     1     1    235.000         5.00000         5.00000              1       0       0       0   0.49555721E+03    0.20000000E+02    0.49027415E+01    0.00000000E+00    0.000000E+00    0.306380E-26    0.000000E+00    0.853942E-27    0.150000E+00   -0.200000E+02   -0.200000E+02   -0.200000E+02    0.195105E+01    0.195105E+01    0.195105E+01    0.100043E+04    0.100147E-02   -0.000000E+00    0.000000E+00   -0.000000E+00    0.100000E-01    0.147213E-04   -0.236001E-16   -0.000000E+00    0.000000E+00   -0.000000E+00
    25     1     1    245.000         5.00000         5.00000              1       0       0       0   0.49555721E+03    0.20000000E+02    0.49027415E+01    0.00000000E+00    0.000000E+00    0.362085E-26    0.000000E+00   -0.805969E-27    0.150000E+00   -0.200000E+02   -0.200000E+02   -0.200000E+02    0.195105E+01    0.195105E+01    0.195105E+01    0.100043E+04    0.100147E-02   -0.000000E+00    0.000000E+00   -0.000000E+00    0.100000E-01    0.147213E-04   -0.236001E-16   -0.000000E+00    0.000000E+00   -0.000000E+00
    26     1     1    255.000         5.00000         5.00000              1       0       0       0   0.49555721E+03    0.20000000E+02    0.49027415E+01    0.00000000E+00    0.000000E+00    0.389938E-26    0.000000E+00   -0.805969E-27    0.150000E+00   -0.200000E+02   -0.200000E+02   -0.200000E+02    0.195105E+01    0.195105E+01    0.195105E+01    0.100043E+04    0.100147E-02   -0.000000E+00    0.000000E+00   -0.000000E+00    0.100000E-01    0.147213E-04   -0.236001E-16   -0.000000E+00    0.000000E+00   -0.000000E+00
    27     1     1    265.000         5.00000         5.00000              1       0       0       0   0.49555721E+03    0.20000000E+02    0.49027415E+01    0.00000000E+00    0.000000E+00    0.389938E-26    0.000000E+00    0.865134E-27    0.150000E+00   -0.200000E+02   -0.200000E+02   -0.200000E+02    0.195105E+01    0.195105E+01    0.195105E+01    0.100043E+04    0.100147E-02   -0.000000E+00    0.000000E+00   -0.000000E+00    0.100000E-01    0.147213E-04   -0.236001E-16   -0.000000E+00    0.000000E+00   -0.000000E+00
    28     1     1    275.000         5.00000         5.00000              1       0       0       0   0.49555721E+03    0.20000000E+02    0.49027415E+01    0.00000000E+00    0.000000E+00    0.306380E-26    0.000000E+00    0.296908E-27    0.150000E+00   -0.200000E+02   -0.200000E+02   -0.200000E+02    0.195105E+01    0.195105E+01    0.195105E+01    0.100043E+04    0.100147E-02   -0.000000E+00    0.000000E+00   -0.000000E+00    0.100000E-01    0.147213E-04   -0.236001E-16   -0.000000E+00    0.000000E+00   -0.000000E+00
    29     1     1    285.000         5.00000         5.00000              1       0       0       0   0.49555721E+03    0.20000000E+02    0.49027415E+01    0.00000000E+00    0.000000E+00    0.389938E-26    0.000000E+00    0.141098E-26    0.150000E+00   -0.200000E+02   -0.200000E+02   -0.200000E+02    0.195105E+01    0.195105E+01    0.195105E+01    0.100043E+04    0.100147E-02   -0.000000E+00    0.000000E+00   -0.000000E+00    0.100000E-01    0.147213E-04   -0.236001E-16   -0.000000E+00    0.000000E+00   -0.000000E+00
    30     1     1    295.000         5.00000         5.00000              1       0       0       0   0.49555721E+03    0.20000000E+02    0.49027415E+01    0.00000000E+00    0.000000E+00    0.473496E-26    0.000000E+00    0.865134E-27    0.150000E+00   -0.200000E+02   -0.200000E+02   -0.200000E+02    0.195105E+01    0.195105E+01    0.195105E+01    0.100043E+04    0.100147E-02   -0.000000E+00    0.000000E+00   -0.000000E+00    0.100000E-01    0.147213E-04   -0.236001E-16   -0.000000E+00    0.000000E+00   -0.000000E+00
    31     1     1    305.000         5.00000         5.00000              1       0       0       0   0.49555721E+03    0.20000000E+02    0.49027415E+01    0.00000000E+00    0.000000E+00    0.445644E-26    0.000000E+00    0.308099E-27    0.150000E+00   -0.200000E+02   -0.200000E+02   -0.200000E+02    0.195105E+01    0.195105E+01    0.195105E+01    0.100043E+04    0.100147E-02   -0.000000E+00    0.000000E+00   -0.000000E+00    0.100000E-01    0.147213E-04   -0.236001E-16   -0.000000E+00    0.000000E+00   -0.000000E+00
    32     1     1    315.000         5.00000         5.00000              1       0       0       0   0.49555721E+03    0.20000000E+02    0.49027415E+01    0.00000000E+00    0.000000E+00    0.417791E-26    0.000000E+00    0.197920E-26    0.150000E+00   -0.200000E+02   -0.200000E+02   -0.200000E+02    0.195105E+01    0.195105E+01    0.195105E+01    0.100043E+04    0.100147E-02   -0.000000E+00    0.000000E+00   -0.000000E+00    0.100000E-01    0.147213E-04   -0.236001E-16   -0.000000E+00    0.000000E+00   -0.000000E+00
    33     1     1    325.000         5.00000         5.00000              1       0       0       0   0.49555721E+03    0.20000000E+02    0.49027415E+01    0.00000000E+00    0.000000E+00    0.306380E-26    0.000000E+00    0.197920E-26    0.150000E+00   -0.200000E+02   -0.200000E+02   -0.200000E+02    0.195105E+01    0.195105E+01    0.195105E+01    0.100043E+04    0.100147E-02   -0.000000E+00    0.000000E+00   -0.000000E+00    0.100000E-01    0.147213E-04   -0.236001E-16   -0.000000E+00    0.000000E+00   -0.000000E+00
    34     1     1    335.000         5.00000         5.00000              1       0       0       0   0.49555721E+03    0.20000000E+02    0.49027415E+01    0.00000000E+00    0.000000E+00    0.306380E-26    0.000000E+00    0.365036E-26    0.150000E+00   -0.200000E+02   -0.200000E+02   -0.200000E+02    0.195105E+01    0.195105E+01    0.195105E+01    0.100043E+04    0.100147E-02   -0.000000E+00    0.000000E+00   -0.000000E+00    0.100000E-01    0.147213E-04   -0.236001E-16   -0.000000E+00    0.000000E+00   -0.000000E+00
    35     1     1    345.000         5.00000         5.00000              1       0       0       0   0.49555721E+03    0.20000000E+02    0.49027415E+01    0.00000000E+00    0.000000E+00    0.473496E-26    0.000000E+00    0.253624E-26    0.150000E+00   -0.200000E+02   -0.200000E+02   -0.200000E+02    0.195105E+01    0.195105E+01    0.195105E+01    0.100043E+04    0.100147E-02   -0.000000E+00    0.000000E+00   -0.000000E+00    0.100000E-01    0.147213E-04   -0.236001E-16   -0.000000E+00    0.000000E+00   -0.000000E+00
    36     1     1    355.000         5.00000         5.00000              1       0       0       0   0.49555721E+03    0.20000000E+02    0.49027415E+01    0.00000000E+00    0.000000E+00    0.584907E-26    0.000000E+00    0.308099E-27    0.150000E+00   -0.200000E+02   -0.200000E+02   -0.200000E+02    0.195105E+01    0.195105E+01    0.195105E+01    0.100043E+04    0.100147E-02   -0.000000E+00    0.000000E+00   -0.000000E+00    0.100000E-01    0.147213E-04   -0.236001E-16   -0.000000E+00    0.000000E+00   -0.000000E+00
    37     1     1    365.000         5.00000         5.00000              1       0       0       0   0.49555721E+03    0.20000000E+02    0.49027415E+01    0.00000000E+00    0.000000E+00    0.529202E-26    0.000000E+00    0.865134E-27    0.150000E+00   -0.200000E+02   -0.200000E+02   -0.200000E+02    0.195105E+01    0.195105E+01    0.195105E+01    0.100043E+04    0.100147E-02   -0.000000E+00    0.000000E+00   -0.000000E+00    0.100000E-01    0.147213E-04   -0.236001E-16   -0.000000E+00    0.000000E+00   -0.000000E+00
    38     1     1    375.000         5.00000         5.00000              1       0       0       0   0.49555721E+03    0.20000000E+02    0.49027415E+01    0.00000000E+00    0.000000E+00    0.417791E-26    0.000000E+00    0.308099E-27    0.150000E+00   -0.200000E+02   -0.200000E+02   -0.200000E+02    0.195105E+01    0.195105E+01    0.195105E+01    0.100043E+04    0.100147E-02   -0.000000E+00    0.000000E+00   -0.000000E+00    0.100000E-01    0.147213E-04   -0.236001E-16   -0.000000E+00    0.000000E+00   -0.000000E+00
    39     1     1    385.000         5.00000         5.00000              1       0       0       0   0.49555721E+03    0.20000000E+02    0.49027415E+01    0.00000000E+00    0.000000E+00    0.362085E-26    0.000000E+00    0.142222E-26    0.150000E+00   -0.200000E+02   -0.200000E+02   -0.200000E+02    0.195105E+01    0.195105E+01    0.195105E+01    0.100043E+04    0.100147E-02   -0.000000E+00    0.000000E+00   -0.000000E+00    0.100000E-01    0.147213E-04   -0.236001E-16   -0.000000E+00    0.000000E+00   -0.000000E+00
    40     1     1    395.000         5.00000         5.00000              1       0       0       0   0.49555721E+03    0.20000000E+02    0.49027415E+01    0.00000000E+00    0.000000E+00    0.306380E-26    0.000000E+00   -0.806019E-27    0.150000E+00   -0.200000E+02   -0.200000E+02   -0.200000E+02    0.195105E+01    0.195105E+01    0.195105E+01    0.100043E+04    0.100147E-02   -0.000000E+00    0.000000E+00   -0.000000E+00    0.100000E-01    0.147213E-04   -0.236001E-16   -0.000000E+00    0.000000E+00   -0.000000E+00
    41     1     1    405.000         5.00000         5.00000              1       0       0       0   0.49555721E+03    0.20000000E+02    0.49027415E+01    0.00000000E+00    0.000000E+00    0.389938E-26    0.000000E+00   -0.136300E-26    0.150000E+00   -0.200000E+02   -0.200000E+02   -0.200000E+02    0.195105E+01    0.195105E+01    0.195105E+01    0.100043E+04    0.100147E-02   -0.000000E+00    0.000000E+00   -0.000000E+00    0.100000E-01    0.147213E-04   -0.236001E-16   -0.000000E+00    0.000000E+00   -0.000000E+00
    42     1     1    415.000         5.00000         5.00000              1       0       0       0   0.49555721E+03    0.20000000E+02    0.49027415E+01    0.00000000E+00    0.000000E+00    0.501349E-26    0.000000E+00   -0.136300E-26    0.150000E+00   -0.200000E+02   -0.200000E+02   -0.200000E+02    0.195105E+01    0.195105E+01    0.195105E+01    0.100043E+04    0.100147E-02   -0.000000E+00    0.000000E+00   -0.000000E+00    0.100000E-01    0.147213E-04   -0.236001E-16   -0.000000E+00    0.000000E+00   -0.000000E+00
    43     1     1    425.000         5.00000         5.00000              1       0       0       0   0.49555721E+03    0.20000000E+02    0.49027415E+01    0.00000000E+00    0.000000E+00    0.557054E-26    0.000000E+00    0.142222E-26    0.150000E+00   -0.200000E+02   -0.200000E+02   -0.200000E+02    0.195105E+01    0.195105E+01    0.195105E+01    0.100043E+04    0.100147E-02   -0.000000E+00    0.000000E+00   -0.000000E+00    0.100000E-01    0.147213E-04   -0.236001E-16   -0.000000E+00    0.000000E+00   -0.000000E+00
    44     1     1    435.000         5.00000         5.00000              1       0       0       0   0.49555721E+03    0.20000000E+02    0.49027415E+01    0.00000000E+00    0.000000E+00    0.473496E-26    0.000000E+00    0.142217E-26    0.150000E+00   -0.200000E+02   -0.200000E+02   -0.200000E+02    0.195105E+01    0.195105E+01    0.195105E+01    0.100043E+04    0.100147E-02   -0.000000E+00    0.000000E+00   -0.000000E+00    0.100000E-01    0.147213E-04   -0.236001E-16   -0.000000E+00    0.000000E+00   -0.000000E+00
    45     1     1    445.000         5.00000         5.00000              1       0       0       0   0.49555721E+03    0.20000000E+02    0.49027415E+01    0.00000000E+00    0.000000E+00    0.362085E-26    0.000000E+00    0.865183E-27    0.150000E+00   -0.200000E+02   -0.200000E+02   -0.200000E+02    0.195105E+01    0.195105E+01    0.195105E+01    0.100043E+04    0.100147E-02   -0.000000E+00    0.000000E+00   -0.000000E+00    0.100000E-01    0.147213E-04   -0.236001E-16   -0.000000E+00    0.000000E+00   -0.000000E+00
    46     1     1    455.000         5.00000         5.00000              1       0       0       0   0.49555721E+03    0.20000000E+02    0.49027415E+01    0.00000000E+00    0.000000E+00    0.389938E-26    0.000000E+00    0.197920E-26    0.150000E+00   -0.200000E+02   -0.200000E+02   -0.200000E+02    0.195105E+01    0.195105E+01    0.195105E+01    0.100043E+04    0.100147E-02   -0.000000E+00    0.000000E+00   -0.000000E+00    0.100000E-01    0.147213E-04   -0.236001E-16   -0.000000E+00    0.000000E+00   -0.000000E+00
    47     1     1    465.000         5.00000         5.00000              1       0       0       0   0.49555721E+03    0.20000000E+02    0.49027415E+01    0.00000000E+00    0.000000E+00    0.194969E-26    0.000000E+00    0.253629E-26    0.150000E+00   -0.200000E+02   -0.200000E+02   -0.200000E+02    0.195105E+01    0.195105E+01    0.195105E+01    0.100043E+04    0.100147E-02   -0.000000E+00    0.000000E+00   -0.000000E+00    0.100000E-01    0.147213E-04   -0.236001E-16   -0.000000E+00    0.000000E+00   -0.000000E+00
    48     1     1    475.000         5.00000         5.00000              1       0       0       0   0.49555721E+03    0.20000000E+02    0.49027415E+01    0.00000000E+00    0.000000E+00   -0.835582E-27    0.000000E+00    0.308099E-27    0.150000E+00   -0.200000E+02   -0.200000E+02   -0.200000E+02    0.195105E+01    0.195105E+01    0.195105E+01    0.100043E+04    0.100147E-02   -0.000000E+00    0.000000E+00   -0.000000E+00    0.100000E-01    0.147213E-04   -0.236001E-16   -0.000000E+00    0.000000E+00   -0.000000E+00
    49     1     1    485.000         5.00000         5.00000              1       0       0       0   0.49555721E+03    0.20000000E+02    0.49027415E+01    0.00000000E+00    0.000000E+00   -0.222822E-26    0.000000E+00    0.142217E-26    0.150000E+00   -0.200000E+02   -0.200000E+02   -0.200000E+02    0.195105E+01    0.195105E+01    0.195105E+01    0.100043E+04    0.100147E-02   -0.000000E+00    0.000000E+00   -0.000000E+00    0.100000E-01    0.147213E-04   -0.236001E-16   -0.000000E+00    0.000000E+00   -0.000000E+00
    50     1     1    495.000         5.00000         5.00000              1       0       0       0   0.49555721E+03    0.20000000E+02    0.49027415E+01    0.00000000E+00    0.000000E+00   -0.278527E-26    0.000000E+00    0.308099E-27    0.150000E+00   -0.200000E+02   -0.200000E+02   -0.200000E+02    0.195105E+01    0.195105E+01    0.195105E+01    0.100043E+04    0.100147E-02   -0.000000E+00    0.000000E+00   -0.000000E+00    0.100000E-01    0.147213E-04   -0.236001E-16   -0.000000E+00    0.000000E+00   -0.000000E+00
     1     1     2    5.00000         5.00000         15.0000              1       0       0       0   0.49553313E+03    0.20000000E+02    0.48046019E+01    0.00000000E+00    0.000000E+00   -0.000000E+00    0.000000E+00   -0.482758E-27    0.150000E+00   -0.200000E+02   -0.200000E+02   -0.200000E+02    0.195105E+01    0.195105E+01    0.195105E+01    0.100038E+04    0.100149E-02   -0.000000E+00    0.000000E+00   -0.000000E+00    0.100000E-01    0.147206E-04    0.509027E-18   -0.000000E+00    0.000000E+00   -0.000000E+00
     2     1     2    15.0000         5.00000         15.0000              1       0       0       0   0.49553313E+03    0.20000000E+02    0.48046019E+01    0.00000000E+00    0.000000E+00    0.278507E-26    0.000000E+00   -0.198768E-27    0.150000E+00   -0.200000E+02   -0.200000E+02   -0.200000E+02    0.195105E+01    0.195105E+01    0.195105E+01    0.100038E+04    0.100149E-02   -0.000000E+00    0.000000E+00   -0.000000E+00    0.100000E-01    0.147206E-04    0.509027E-18   -0.000000E+00    0.000000E+00   -0.000000E+00
     3     1     2    25.0000         5.00000         15.0000              1       0       0       0   0.49553313E+03    0.20000000E+02    0.48046019E+01    0.00000000E+00    0.000000E+00    0.668417E-26    0.000000E+00   -0.103422E-26    0.150000E+00   -0.200000E+02   -0.200000E+02   -0.200000E+02    0.195105E+01    0.195105E+01    0.195105E+01    0.100038E+04    0.100149E-02   -0.000000E+00    0.000000E+00   -0.000000E+00    0.100000E-01    0.147206E-04    0.509027E-18   -0.000000E+00    0.000000E+00   -0.000000E+00
     4     1     2    35.0000         5.00000         15.0000              1       0       0       0   0.49553313E+03    0.20000000E+02    0.48046019E+01    0.00000000E+00    0.000000E+00    0.696267E-26    0.000000E+00    0.636882E-27    0.150000E+00   -0.200000E+02   -0.200000E+02   -0.200000E+02    0.195105E+01    0.195105E+01    0.195105E+01    0.100038E+04    0.100149E-02   -0.000000E+00    0.000000E+00   -0.000000E+00    0.100000E-01    0.147206E-04    0.509027E-18   -0.000000E+00    0.000000E+00   -0.000000E+00
     5     1     2    45.0000         5.00000         15.0000              1       0       0       0   0.49553313E+03    0.20000000E+02    0.48046019E+01    0.00000000E+00    0.000000E+00    0.612715E-26    0.000000E+00    0.375103E-27    0.150000E+00   -0.200000E+02   -0.200000E+02   -0.200000E+02    0.195105E+01    0.195105E+01    0.195105E+01    0.100038E+04    0.100149E-02   -0.000000E+00    0.000000E+00   -0.000000E+00    0.100000E-01    0.147206E-04    0.509027E-18   -0.000000E+00    0.000000E+00   -0.000000E+00
     6     1     2    55.0000         5.00000         15.0000              1       0       0       0   0.49553313E+03    0.20000000E+02    0.48046019E+01    0.00000000E+00    0.000000E+00    0.529163E-26    0.000000E+00   -0.185294E-26    0.150000E+00   -0.200000E+02   -0.200000E+02   -0.200000E+02    0.195105E+01    0.195105E+01    0.195105E+01    0.100038E+04    0.100149E-02   -0.000000E+00    0.000000E+00   -0.000000E+00    0.100000E-01    0.147206E-04    0.509027E-18   -0.000000E+00    0.000000E+00   -0.000000E+00