title = "ht_init_final"
variables = "i",  "j",  "k", "x",            "y",            "z", "uindex",   "obsz","obst","cindex",           "head",           "temp",           "pres",           "satn",           "epot",           "vx",           "vy",           "vz",          "por",           "kx",           "ky",           "kz",           "lx",           "ly",           "lz",         "rhof",         "visf",          "qxc",          "qyc",          "qzc",        "sigma",           "lc",          "src",          "jxc",          "jyc",          "jzc"
zone i=   50, j=    1, k=   50, f=point
     1     1     1    5.00000         5.00000         5.00000              1       0       0       0   0.49599395E+03    0.18732912E+02    0.49070173E+01    0.00000000E+00    0.000000E+00   -0.540358E-26    0.000000E+00    0.445061E-26    0.150000E+00   -0.200000E+02   -0.200000E+02   -0.200000E+02    0.195391E+01    0.195391E+01    0.195391E+01    0.100068E+04    0.103267E-02    0.389165E-10    0.000000E+00    0.350000E-01    0.100000E-01    0.145385E-04   -0.350000E-02   -0.000000E+00    0.000000E+00   -0.000000E+00
     2     1     1    15.0000         5.00000         5.00000              1       0       0       0   0.49599395E+03    0.18732912E+02    0.49070173E+01    0.00000000E+00    0.000000E+00   -0.621412E-26    0.000000E+00    0.458018E-26    0.150000E+00   -0.200000E+02   -0.200000E+02   -0.200000E+02    0.195391E+01    0.195391E+01    0.195391E+01    0.100068E+04    0.103267E-02    0.403528E-10    0.000000E+00    0.350000E-01    0.100000E-01    0.145385E-04   -0.350000E-02   -0.000000E+00    0.000000E+00   -0.000000E+00
     3     1     1    25.0000         5.00000         5.00000              1       0       0       0   0.49599395E+03    0.18732912E+02    0.49070173E+01    0.00000000E+00    0.000000E+00   -0.702466E-26    0.000000E+00    0.377125E-27    0.150000E+00   -0.200000E+02   -0.200000E+02   -0.200000E+02    0.195391E+01    0.195391E+01    0.195391E+01    0.100068E+04    0.103267E-02    0.395819E-10    0.000000E+00    0.350000E-01    0.100000E-01    0.145385E-04   -0.350000E-02   -0.000000E+00    0.000000E+00   -0.000000E+00
     4     1     1    35.0000         5.00000         5.00000              1       0       0       0   0.49599395E+03    0.18732912E+02    0.49070173E+01    0.00000000E+00    0.000000E+00   -0.756502E-26    0.000000E+00   -0.460300E-27    0.150000E+00   -0.200000E+02   -0.200000E+02   -0.200000E+02    0.195391E+01    0.195391E+01    0.195391E+01    0.100068E+04    0.103267E-02    0.347873E-10    0.000000E+00    0.350000E-01    0.100000E-01    0.145385E-04   -0.350000E-02   -0.000000E+00    0.000000E+00   -0.000000E+00
     5     1     1    45.0000         5.00000         5.00000              1       0       0       0   0.49599395E+03    0.18732912E+02    0.49070173E+01    0.00000000E+00    0.000000E+00   -0.756502E-26    0.000000E+00    0.914093E-27    0.150000E+00   -0.200000E+02   -0.200000E+02   -0.200000E+02    0.195391E+01    0.195391E+01    0.195391E+01    0.100068E+04    0.103267E-02    0.299090E-10    0.000000E+00    0.350000E-01    0.100000E-01    0.145385E-04   -0.350000E-02   -0.000000E+00    0.000000E+00   -0.000000E+00
     6     1     1    55.0000         5.00000         5.00000              1       0       0       0   0.49599395E+03    0.18732912E+02    0.49070173E+01    0.00000000E+00    0.000000E+00   -0.729484E-26    0.000000E+00    0.140023E-28    0.150000E+00   -0.200000E+02   -0.200000E+02   -0.200000E+02    0.195391E+01    0.195391E+01    0.195391E+01    0.100068E+04    0.103267E-02    0.257006E-10    0.000000E+00    0.350000E-01    0.100000E-01    0.145385E-04   -0.350000E-02   -0.000000E+00    0.000000E+00   -0.000000E+00
     7     1     1    65.0000         5.00000         5.00000              1       0       0       0   0.49599395E+03    0.18732912E+02    0.49070173E+01    0.00000000E+00    0.000000E+00   -0.783520E-26    0.000000E+00    0.109888E-26    0.150000E+00   -0.200000E+02   -0.200000E+02   -0.200000E+02    0.195391E+01    0.195391E+01    0.195391E+01    0.100068E+04    0.103267E-02    0.221898E-10    0.000000E+00    0.350000E-01    0.100000E-01    0.145385E-04   -0.350000E-02   -0.000000E+00    0.000000E+00   -0.000000E+00
     8     1     1    75.0000         5.00000         5.00000              1       0       0       0   0.49599395E+03    0.18732912E+02    0.49070173E+01    0.00000000E+00    0.000000E+00   -0.810538E-26    0.000000E+00    0.188217E-26    0.150000E+00   -0.200000E+02   -0.200000E+02   -0.200000E+02    0.195391E+01    0.195391E+01    0.195391E+01    0.100068E+04    0.103267E-02    0.192632E-10    0.000000E+00    0.350000E-01    0.100000E-01    0.145385E-04   -0.350000E-02   -0.000000E+00    0.000000E+00   -0.000000E+00
     9     1     1    85.0000         5.00000         5.00000              1       0       0       0   0.49599395E+03    0.18732912E+02    0.49070173E+01    0.00000000E+00    0.000000E+00   -0.756502E-26    0.000000E+00    0.185742E-26    0.150000E+00   -0.200000E+02   -0.200000E+02   -0.200000E+02    0.195391E+01    0.195391E+01    0.195391E+01    0.100068E+04    0.103267E-02    0.168034E-10    0.000000E+00    0.350000E-01    0.100000E-01    0.145385E-04   -0.350000E-02   -0.000000E+00    0.000000E+00   -0.000000E+00
    10     1     1    95.0000         5.00000         5.00000              1       0       0       0   0.49599395E+03    0.18732912E+02    0.49070173E+01    0.00000000E+00    0.000000E+00   -0.756502E-26    0.000000E+00    0.387972E-27    0.150000E+00   -0.200000E+02   -0.200000E+02   -0.200000E+02    0.195391E+01    0.195391E+01    0.195391E+01    0.100068E+04    0.103267E-02    0.147136E-10    0.000000E+00    0.350000E-01    0.100000E-01    0.145385E-04   -0.350000E-02   -0.000000E+00    0.000000E+00   -0.000000E+00
    11     1     1    105.000         5.00000         5.00000              1       0       0       0   0.49599395E+03    0.18732912E+02    0.49070173E+01    0.00000000E+00    0.000000E+00   -0.756502E-26    0.000000E+00   -0.326293E-27    0.150000E+00   -0.200000E+02   -0.200000E+02   -0.200000E+02    0.195391E+01    0.195391E+01    0.195391E+01    0.100068E+04    0.103267E-02    0.129175E-10    0.000000E+00    0.350000E-01    0.100000E-01    0.145385E-04   -0.350000E-02   -0.000000E+00    0.000000E+00   -0.000000E+00
    12     1     1    115.000         5.00000         5.00000              1       0       0       0   0.49599395E+03    0.18732912E+02    0.49070173E+01    0.00000000E+00    0.000000E+00   -0.756502E-26    0.000000E+00   -0.142838E-26    0.150000E+00   -0.200000E+02   -0.200000E+02   -0.200000E+02    0.195391E+01    0.195391E+01    0.195391E+01    0.100068E+04    0.103267E-02    0.113563E-10    0.000000E+00    0.350000E-01    0.100000E-01    0.145385E-04   -0.350000E-02   -0.000000E+00    0.000000E+00   -0.000000E+00
    13     1     1    125.000         5.00000         5.00000              1       0       0       0   0.49599395E+03    0.18732912E+02    0.49070173E+01    0.00000000E+00    0.000000E+00   -0.702466E-26    0.000000E+00   -0.783388E-27    0.150000E+00   -0.200000E+02   -0.200000E+02   -0.200000E+02    0.195391E+01    0.195391E+01    0.195391E+01    0.100068E+04    0.103267E-02    0.998528E-11    0.000000E+00    0.350000E-01    0.100000E-01    0.145385E-04   -0.350000E-02   -0.000000E+00    0.000000E+00   -0.000000E+00
    14     1     1    135.000         5.00000         5.00000              1       0       0       0   0.49599395E+03    0.18732912E+02    0.49070173E+01    0.00000000E+00    0.000000E+00   -0.729484E-26    0.000000E+00    0.104805E-26    0.150000E+00   -0.200000E+02   -0.200000E+02   -0.200000E+02    0.195391E+01    0.195391E+01    0.195391E+01    0.100068E+04    0.103267E-02    0.876979E-11    0.000000E+00    0.350000E-01    0.100000E-01    0.145385E-04   -0.350000E-02   -0.000000E+00    0.000000E+00   -0.000000E+00
    15     1     1    145.000         5.00000         5.00000              1       0       0       0   0.49599395E+03    0.18732912E+02    0.49070173E+01    0.00000000E+00    0.000000E+00   -0.891592E-26    0.000000E+00    0.291731E-27    0.150000E+00   -0.200000E+02   -0.200000E+02   -0.200000E+02    0.195391E+01    0.195391E+01    0.195391E+01    0.100068E+04    0.103267E-02    0.768203E-11    0.000000E+00    0.350000E-01    0.100000E-01    0.145385E-04   -0.350000E-02   -0.000000E+00    0.000000E+00   -0.000000E+00
    16     1     1    155.000         5.00000         5.00000              1       0       0       0   0.49599395E+03    0.18732912E+02    0.49070173E+01    0.00000000E+00    0.000000E+00   -0.891592E-26    0.000000E+00    0.204266E-27    0.150000E+00   -0.200000E+02   -0.200000E+02   -0.200000E+02    0.195391E+01    0.195391E+01    0.195391E+01    0.100068E+04    0.103267E-02    0.669804E-11    0.000000E+00    0.350000E-01    0.100000E-01    0.145385E-04   -0.350000E-02   -0.000000E+00    0.000000E+00   -0.000000E+00
    17     1     1    165.000         5.00000         5.00000              1       0       0       0   0.49599395E+03    0.18732912E+02    0.49070173E+01    0.00000000E+00    0.000000E+00   -0.675448E-26    0.000000E+00   -0.918382E-27    0.150000E+00   -0.200000E+02   -0.200000E+02   -0.200000E+02    0.195391E+01    0.195391E+01    0.195391E+01    0.100068E+04    0.103267E-02    0.579944E-11    0.000000E+00    0.350000E-01    0.100000E-01    0.145385E-04   -0.350000E-02   -0.000000E+00    0.000000E+00   -0.000000E+00
    18     1     1    175.000         5.00000         5.00000              1       0       0       0   0.49599395E+03    0.18732912E+02    0.49070173E+01    0.00000000E+00    0.000000E+00   -0.378251E-26    0.000000E+00   -0.142621E-26    0.150000E+00   -0.200000E+02   -0.200000E+02   -0.200000E+02    0.195391E+01    0.195391E+01    0.195391E+01    0.100068E+04    0.103267E-02    0.497338E-11    0.000000E+00    0.350000E-01    0.100000E-01    0.145385E-04   -0.350000E-02   -0.000000E+00    0.000000E+00   -0.000000E+00
    19     1     1    185.000         5.00000         5.00000              1       0       0       0   0.49599395E+03    0.18732912E+02    0.49070173E+01    0.00000000E+00    0.000000E+00   -0.216143E-26    0.000000E+00   -0.130847E-26    0.150000E+00   -0.200000E+02   -0.200000E+02   -0.200000E+02    0.195391E+01    0.195391E+01    0.195391E+01    0.100068E+04    0.103267E-02    0.420632E-11    0.000000E+00    0.350000E-01    0.100000E-01    0.145385E-04   -0.350000E-02   -0.000000E+00    0.000000E+00   -0.000000E+00
    20     1     1    195.000         5.00000         5.00000              1       0       0       0   0.49599395E+03    0.18732912E+02    0.49070173E+01    0.00000000E+00    0.000000E+00   -0.216143E-26    0.000000E+00    0.104159E-26    0.150000E+00   -0.200000E+02   -0.200000E+02   -0.200000E+02    0.195391E+01    0.195391E+01    0.195391E+01    0.100068E+04    0.103267E-02    0.348647E-11    0.000000E+00    0.350000E-01    0.100000E-01    0.145385E-04   -0.350000E-02   -0.000000E+00    0.000000E+00   -0.000000E+00
    21     1     1    205.000         5.00000         5.00000              1       0       0       0   0.49599395E+03    0.18732912E+02    0.49070173E+01    0.00000000E+00    0.000000E+00   -0.324215E-26    0.000000E+00    0.235657E-26    0.150000E+00   -0.200000E+02   -0.200000E+02   -0.200000E+02    0.195391E+01    0.195391E+01    0.195391E+01    0.100068E+04    0.103267E-02    0.280514E-11    0.000000E+00    0.350000E-01    0.100000E-01    0.145385E-04   -0.350000E-02   -0.000000E+00    0.000000E+00   -0.000000E+00
    22     1     1    215.000         5.00000         5.00000              1       0       0       0   0.49599395E+03    0.18732912E+02    0.49070173E+01    0.00000000E+00    0.000000E+00   -0.405269E-26    0.000000E+00   -0.270185E-28    0.150000E+00   -0.200000E+02   -0.200000E+02   -0.200000E+02    0.195391E+01    0.195391E+01    0.195391E+01    0.100068E+04    0.103267E-02    0.215227E-11    0.000000E+00    0.350000E-01    0.100000E-01    0.145385E-04   -0.350000E-02   -0.000000E+00    0.000000E+00   -0.000000E+00
    23     1     1    225.000         5.00000         5.00000              1       0       0       0   0.49599395E+03    0.18732912E+02    0.49070173E+01    0.00000000E+00    0.000000E+00   -0.351233E-26    0.000000E+00    0.878446E-27    0.150000E+00   -0.200000E+02   -0.200000E+02   -0.200000E+02    0.195391E+01    0.195391E+01    0.195391E+01    0.100068E+04    0.103267E-02    0.152197E-11    0.000000E+00    0.350000E-01    0.100000E-01    0.145385E-04   -0.350000E-02   -0.000000E+00    0.000000E+00   -0.000000E+00
    24     1     1    235.000         5.00000         5.00000              1       0       0       0   0.49599395E+03    0.18732912E+02    0.49070173E+01    0.00000000E+00    0.000000E+00   -0.324215E-26    0.000000E+00   -0.275460E-27    0.150000E+00   -0.200000E+02   -0.200000E+02   -0.200000E+02    0.195391E+01    0.195391E+01    0.195391E+01    0.100068E+04    0.103267E-02    0.910056E-12    0.000000E+00    0.350000E-01    0.100000E-01    0.145385E-04   -0.350000E-02   -0.000000E+00    0.000000E+00   -0.000000E+00
    25     1     1    245.000         5.00000         5.00000              1       0       0       0   0.49599395E+03    0.18732912E+02    0.49070173E+01    0.00000000E+00    0.000000E+00   -0.405269E-26    0.000000E+00   -0.361989E-27    0.150000E+00   -0.200000E+02   -0.200000E+02   -0.200000E+02    0.195391E+01    0.195391E+01    0.195391E+01    0.100068E+04    0.103267E-02    0.306823E-12    0.000000E+00    0.350000E-01    0.100000E-01    0.145385E-04   -0.350000E-02   -0.000000E+00    0.000000E+00   -0.000000E+00
    26     1     1    255.000         5.00000         5.00000              1       0       0       0   0.49599395E+03    0.18732912E+02    0.49070173E+01    0.00000000E+00    0.000000E+00   -0.486323E-26    0.000000E+00   -0.141867E-26    0.150000E+00   -0.200000E+02   -0.200000E+02   -0.200000E+02    0.195391E+01    0.195391E+01    0.195391E+01    0.100068E+04    0.103267E-02   -0.294328E-12    0.000000E+00    0.350000E-01    0.100000E-01    0.145385E-04   -0.350000E-02   -0.000000E+00    0.000000E+00   -0.000000E+00
    27     1     1    265.000         5.00000         5.00000              1       0       0       0   0.49599395E+03    0.18732912E+02    0.49070173E+01    0.00000000E+00    0.000000E+00   -0.378251E-26    0.000000E+00   -0.857936E-27    0.150000E+00   -0.200000E+02   -0.200000E+02   -0.200000E+02    0.195391E+01    0.195391E+01    0.195391E+01    0.100068E+04    0.103267E-02   -0.897561E-12    0.000000E+00    0.350000E-01    0.100000E-01    0.145385E-04   -0.350000E-02   -0.000000E+00    0.000000E+00   -0.000000E+00
    28     1     1    275.000         5.00000         5.00000              1       0       0       0   0.49599395E+03    0.18732912E+02    0.49070173E+01    0.00000000E+00    0.000000E+00   -0.135090E-26    0.000000E+00   -0.182819E-26    0.150000E+00   -0.200000E+02   -0.200000E+02   -0.200000E+02    0.195391E+01    0.195391E+01    0.195391E+01    0.100068E+04    0.103267E-02   -0.151155E-11    0.000000E+00    0.350000E-01    0.100000E-01    0.145385E-04   -0.350000E-02   -0.000000E+00    0.000000E+00   -0.000000E+00
    29     1     1    285.000         5.00000         5.00000              1       0       0       0   0.49599395E+03    0.18732912E+02    0.49070173E+01    0.00000000E+00    0.000000E+00   -0.270179E-27    0.000000E+00   -0.271205E-26    0.150000E+00   -0.200000E+02   -0.200000E+02   -0.200000E+02    0.195391E+01    0.195391E+01    0.195391E+01    0.100068E+04    0.103267E-02   -0.214186E-11    0.000000E+00    0.350000E-01    0.100000E-01    0.145385E-04   -0.350000E-02   -0.000000E+00    0.000000E+00   -0.000000E+00
    30     1     1    295.000         5.00000         5.00000              1       0       0       0   0.49599395E+03    0.18732912E+02    0.49070173E+01    0.00000000E+00    0.000000E+00   -0.270179E-27    0.000000E+00   -0.195672E-26    0.150000E+00   -0.200000E+02   -0.200000E+02   -0.200000E+02    0.195391E+01    0.195391E+01    0.195391E+01    0.100068E+04    0.103267E-02   -0.279403E-11    0.000000E+00    0.350000E-01    0.100000E-01    0.145385E-04   -0.350000E-02   -0.000000E+00    0.000000E+00   -0.000000E+00
    31     1     1    305.000         5.00000         5.00000              1       0       0       0   0.49599395E+03    0.18732912E+02    0.49070173E+01    0.00000000E+00    0.000000E+00    0.810538E-27    0.000000E+00   -0.475289E-28    0.150000E+00   -0.200000E+02   -0.200000E+02   -0.200000E+02    0.195391E+01    0.195391E+01    0.195391E+01    0.100068E+04    0.103267E-02   -0.347675E-11    0.000000E+00    0.350000E-01    0.100000E-01    0.145385E-04   -0.350000E-02   -0.000000E+00    0.000000E+00   -0.000000E+00
    32     1     1    315.000         5.00000         5.00000              1       0       0       0   0.49599395E+03    0.18732912E+02    0.49070173E+01    0.00000000E+00    0.000000E+00    0.297197E-26    0.000000E+00   -0.219303E-27    0.150000E+00   -0.200000E+02   -0.200000E+02   -0.200000E+02    0.195391E+01    0.195391E+01    0.195391E+01    0.100068E+04    0.103267E-02   -0.419695E-11    0.000000E+00    0.350000E-01    0.100000E-01    0.145385E-04   -0.350000E-02   -0.000000E+00    0.000000E+00   -0.000000E+00
    33     1     1    325.000         5.00000         5.00000              1       0       0       0   0.49599395E+03    0.18732912E+02    0.49070173E+01    0.00000000E+00    0.000000E+00    0.432287E-26    0.000000E+00   -0.337090E-27    0.150000E+00   -0.200000E+02   -0.200000E+02   -0.200000E+02    0.195391E+01    0.195391E+01    0.195391E+01    0.100068E+04    0.103267E-02   -0.496435E-11    0.000000E+00    0.350000E-01    0.100000E-01    0.145385E-04   -0.350000E-02   -0.000000E+00    0.000000E+00   -0.000000E+00
    34     1     1    335.000         5.00000         5.00000              1       0       0       0   0.49599395E+03    0.18732912E+02    0.49070173E+01    0.00000000E+00    0.000000E+00    0.378251E-26    0.000000E+00   -0.400889E-27    0.150000E+00   -0.200000E+02   -0.200000E+02   -0.200000E+02    0.195391E+01    0.195391E+01    0.195391E+01    0.100068E+04    0.103267E-02   -0.579180E-11    0.000000E+00    0.350000E-01    0.100000E-01    0.145385E-04   -0.350000E-02   -0.000000E+00    0.000000E+00   -0.000000E+00
    35     1     1    345.000         5.00000         5.00000              1       0       0       0   0.49599395E+03    0.18732912E+02    0.49070173E+01    0.00000000E+00    0.000000E+00    0.243161E-26    0.000000E+00   -0.356565E-27    0.150000E+00   -0.200000E+02   -0.200000E+02   -0.200000E+02    0.195391E+01    0.195391E+01    0.195391E+01    0.100068E+04    0.103267E-02   -0.669040E-11    0.000000E+00    0.350000E-01    0.100000E-01    0.145385E-04   -0.350000E-02   -0.000000E+00    0.000000E+00   -0.000000E+00
    36     1     1    355.000         5.00000         5.00000              1       0       0       0   0.49599395E+03    0.18732912E+02    0.49070173E+01    0.00000000E+00    0.000000E+00    0.270179E-27    0.000000E+00    0.189839E-26    0.150000E+00   -0.200000E+02   -0.200000E+02   -0.200000E+02    0.195391E+01    0.195391E+01    0.195391E+01    0.100068E+04    0.103267E-02   -0.767474E-11    0.000000E+00    0.350000E-01    0.100000E-01    0.145385E-04   -0.350000E-02   -0.000000E+00    0.000000E+00   -0.000000E+00
    37     1     1    365.000         5.00000         5.00000              1       0       0       0   0.49599395E+03    0.18732912E+02    0.49070173E+01    0.00000000E+00    0.000000E+00   -0.135090E-26    0.000000E+00    0.267641E-26    0.150000E+00   -0.200000E+02   -0.200000E+02   -0.200000E+02    0.195391E+01    0.195391E+01    0.195391E+01    0.100068E+04    0.103267E-02   -0.876458E-11    0.000000E+00    0.350000E-01    0.100000E-01    0.145385E-04   -0.350000E-02   -0.000000E+00    0.000000E+00   -0.000000E+00
    38     1     1    375.000         5.00000         5.00000              1       0       0       0   0.49599395E+03    0.18732912E+02    0.49070173E+01    0.00000000E+00    0.000000E+00   -0.108072E-26    0.000000E+00    0.855668E-27    0.150000E+00   -0.200000E+02   -0.200000E+02   -0.200000E+02    0.195391E+01    0.195391E+01    0.195391E+01    0.100068E+04    0.103267E-02   -0.998042E-11    0.000000E+00    0.350000E-01    0.100000E-01    0.145385E-04   -0.350000E-02   -0.000000E+00    0.000000E+00   -0.000000E+00
    39     1     1    385.000         5.00000         5.00000              1       0       0       0   0.49599395E+03    0.18732912E+02    0.49070173E+01    0.00000000E+00    0.000000E+00   -0.135090E-26    0.000000E+00   -0.328462E-27    0.150000E+00   -0.200000E+02   -0.200000E+02   -0.200000E+02    0.195391E+01    0.195391E+01    0.195391E+01    0.100068E+04    0.103267E-02   -0.113521E-10    0.000000E+00    0.350000E-01    0.100000E-01    0.145385E-04   -0.350000E-02   -0.000000E+00    0.000000E+00   -0.000000E+00
    40     1     1    395.000         5.00000         5.00000              1       0       0       0   0.49599395E+03    0.18732912E+02    0.49070173E+01    0.00000000E+00    0.000000E+00   -0.216143E-26    0.000000E+00    0.131276E-26    0.150000E+00   -0.200000E+02   -0.200000E+02   -0.200000E+02    0.195391E+01    0.195391E+01    0.195391E+01    0.100068E+04    0.103267E-02   -0.129147E-10    0.000000E+00    0.350000E-01    0.100000E-01    0.145385E-04   -0.350000E-02   -0.000000E+00    0.000000E+00   -0.000000E+00
    41     1     1    405.000         5.00000         5.00000              1       0       0       0   0.49599395E+03    0.18732912E+02    0.49070173E+01    0.00000000E+00    0.000000E+00   -0.243161E-26    0.000000E+00   -0.120804E-26    0.150000E+00   -0.200000E+02   -0.200000E+02   -0.200000E+02    0.195391E+01    0.195391E+01    0.195391E+01    0.100068E+04    0.103267E-02   -0.147129E-10    0.000000E+00    0.350000E-01    0.100000E-01    0.145385E-04   -0.350000E-02   -0.000000E+00    0.000000E+00   -0.000000E+00
    42     1     1    415.000         5.00000         5.00000              1       0       0       0   0.49599395E+03    0.18732912E+02    0.49070173E+01    0.00000000E+00    0.000000E+00   -0.540358E-27    0.000000E+00   -0.247752E-26    0.150000E+00   -0.200000E+02   -0.200000E+02   -0.200000E+02    0.195391E+01    0.195391E+01    0.195391E+01    0.100068E+04    0.103267E-02   -0.168038E-10    0.000000E+00    0.350000E-01    0.100000E-01    0.145385E-04   -0.350000E-02   -0.000000E+00    0.000000E+00   -0.000000E+00
    43     1     1    425.000         5.00000         5.00000              1       0       0       0   0.49599395E+03    0.18732912E+02    0.49070173E+01    0.00000000E+00    0.000000E+00    0.189125E-26    0.000000E+00    0.232320E-27    0.150000E+00   -0.200000E+02   -0.200000E+02   -0.200000E+02    0.195391E+01    0.195391E+01    0.195391E+01    0.100068E+04    0.103267E-02   -0.192632E-10    0.000000E+00    0.350000E-01    0.100000E-01    0.145385E-04   -0.350000E-02   -0.000000E+00    0.000000E+00   -0.000000E+00
    44     1     1    435.000         5.00000         5.00000              1       0       0       0   0.49599395E+03    0.18732912E+02    0.49070173E+01    0.00000000E+00    0.000000E+00    0.189125E-26    0.000000E+00   -0.572614E-27    0.150000E+00   -0.200000E+02   -0.200000E+02   -0.200000E+02    0.195391E+01    0.195391E+01    0.195391E+01    0.100068E+04    0.103267E-02   -0.221888E-10    0.000000E+00    0.350000E-01    0.100000E-01    0.145385E-04   -0.350000E-02   -0.000000E+00    0.000000E+00   -0.000000E+00
    45     1     1    445.000         5.00000         5.00000              1       0       0       0   0.49599395E+03    0.18732912E+02    0.49070173E+01    0.00000000E+00    0.000000E+00    0.243161E-26    0.000000E+00   -0.266019E-26    0.150000E+00   -0.200000E+02   -0.200000E+02   -0.200000E+02    0.195391E+01    0.195391E+01    0.195391E+01    0.100068E+04    0.103267E-02   -0.256978E-10    0.000000E+00    0.350000E-01    0.100000E-01    0.145385E-04   -0.350000E-02   -0.000000E+00    0.000000E+00   -0.000000E+00
    46     1     1    455.000         5.00000         5.00000              1       0       0       0   0.49599395E+03    0.18732912E+02    0.49070173E+01    0.00000000E+00    0.000000E+00    0.459305E-26    0.000000E+00   -0.725012E-27    0.150000E+00   -0.200000E+02   -0.200000E+02   -0.200000E+02    0.195391E+01    0.195391E+01    0.195391E+01    0.100068E+04    0.103267E-02   -0.299048E-10    0.000000E+00    0.350000E-01    0.100000E-01    0.145385E-04   -0.350000E-02   -0.000000E+00    0.000000E+00   -0.000000E+00
    47     1     1    465.000         5.00000         5.00000              1       0       0       0   0.49599395E+03    0.18732912E+02    0.49070173E+01    0.00000000E+00    0.000000E+00    0.594394E-26    0.000000E+00   -0.260610E-26    0.150000E+00   -0.200000E+02   -0.200000E+02   -0.200000E+02    0.195391E+01    0.195391E+01    0.195391E+01    0.100068E+04    0.103267E-02   -0.347838E-10    0.000000E+00    0.350000E-01    0.100000E-01    0.145385E-04   -0.350000E-02   -0.000000E+00    0.000000E+00   -0.000000E+00
    48     1     1    475.000         5.00000         5.00000              1       0       0       0   0.49599395E+03    0.18732912E+02    0.49070173E+01    0.00000000E+00    0.000000E+00    0.648430E-26    0.000000E+00   -0.235120E-26    0.150000E+00   -0.200000E+02   -0.200000E+02   -0.200000E+02    0.195391E+01    0.195391E+01    0.195391E+01    0.100068E+04    0.103267E-02   -0.395795E-10    0.000000E+00    0.350000E-01    0.100000E-01    0.145385E-04   -0.350000E-02   -0.000000E+00    0.000000E+00   -0.000000E+00
    49     1     1    485.000         5.00000         5.00000              1       0       0       0   0.49599395E+03    0.18732912E+02    0.49070173E+01    0.00000000E+00    0.000000E+00    0.621412E-26    0.000000E+00   -0.811491E-27    0.150000E+00   -0.200000E+02   -0.200000E+02   -0.200000E+02    0.195391E+01    0.195391E+01    0.195391E+01    0.100068E+04    0.103267E-02   -0.403489E-10    0.000000E+00    0.350000E-01    0.100000E-01    0.145385E-04   -0.350000E-02   -0.000000E+00    0.000000E+00   -0.000000E+00
    50     1     1    495.000         5.00000         5.00000              1       0       0       0   0.49599395E+03    0.18732912E+02    0.49070173E+01    0.00000000E+00    0.000000E+00    0.594394E-26    0.000000E+00    0.227222E-26    0.150000E+00   -0.200000E+02   -0.200000E+02   -0.200000E+02    0.195391E+01    0.195391E+01    0.195391E+01    0.100068E+04    0.103267E-02   -0.389117E-10    0.000000E+00    0.350000E-01    0.100000E-01    0.145385E-04   -0.350000E-02   -0.000000E+00    0.000000E+00   -0.000000E+00
     1     1     2    5.00000         5.00000         15.0000              1       0       0       0   0.49596715E+03    0.18553803E+02    0.48088512E+01    0.00000000E+00    0.000000E+00   -0.000000E+00    0.000000E+00    0.606402E-26    0.150000E+00   -0.200000E+02   -0.200000E+02   -0.200000E+02    0.195432E+01    0.195432E+01    0.195432E+01    0.100066E+04    0.103723E-02    0.749595E-10    0.000000E+00    0.350000E-01    0.100000E-01    0.145118E-04    0.185538E+02   -0.000000E+00    0.000000E+00   -0.000000E+00
     2     1     2    15.0000         5.00000         15.0000              1       0       0       0   0.49596715E+03    0.18553803E+02    0.48088512E+01    0.00000000E+00    0.000000E+00   -0.349684E-26    0.000000E+00    0.247298E-26    0.150000E+00   -0.200000E+02   -0.200000E+02   -0.200000E+02    0.195432E+01    0.195432E+01    0.195432E+01    0.100066E+04    0.103723E-02    0.620195E-10    0.000000E+00    0.350000E-01    0.100000E-01    0.145118E-04   -0.100000E-11   -0.000000E+00    0.000000E+00   -0.000000E+00
     3     1     2    25.0000         5.00000         15.0000              1       0       0       0   0.49596715E+03    0.18553803E+02    0.48088512E+01    0.00000000E+00    0.000000E+00   -0.564875E-26    0.000000E+00    0.989996E-27    0.150000E+00   -0.200000E+02   -0.200000E+02   -0.200000E+02    0.195432E+01    0.195432E+01    0.195432E+01    0.100066E+04    0.103723E-02    0.436063E-10    0.000000E+00    0.350000E-01    0.100000E-01    0.145118E-04   -0.100000E-11   -0.000000E+00    0.000000E+00   -0.000000E+00
     4     1     2    35.0000         5.00000         15.0000              1       0       0       0   0.49596715E+03    0.18553803E+02    0.48088512E+01    0.00000000E+00    0.000000E+00   -0.403482E-26    0.000000E+00   -0.117836E-28    0.150000E+00   -0.200000E+02   -0.200000E+02   -0.200000E+02    0.195432E+01    0.195432E+01    0.195432E+01    0.100066E+04    0.103723E-02    0.348702E-10    0.000000E+00    0.350000E-01    0.100000E-01    0.145118E-04   -0.100000E-11   -0.000000E+00    0.000000E+00   -0.000000E+00
     5     1     2    45.0000         5.00000         15.0000              1       0       0       0   0.49596715E+03    0.18553803E+02    0.48088512E+01    0.00000000E+00    0.000000E+00   -0.457279E-26    0.000000E+00    0.372022E-27    0.150000E+00   -0.200000E+02   -0.200000E+02   -0.200000E+02    0.195432E+01    0.195432E+01    0.195432E+01    0.100066E+04    0.103723E-02    0.292389E-10    0.000000E+00    0.350000E-01    0.100000E-01    0.145118E-04   -0.100000E-11   -0.000000E+00    0.000000E+00   -0.000000E+00
     6     1     2    55.0000         5.00000         15.0000              1       0       0       0   0.49596715E+03    0.18553803E+02    0.48088512E+01    0.00000000E+00    0.000000E+00   -0.484178E-26    0.000000E+00    0.606708E-27    0.150000E+00   -0.200000E+02   -0.200000E+02   -0.200000E+02    0.195432E+01    0.195432E+01    0.195432E+01    0.100066E+04    0.103723E-02    0.250029E-10    0.000000E+00    0.350000E-01    0.100000E-01    0.145118E-04   -0.100000E-11   -0.000000E+00    0.000000E+00   -0.000000E+00