# vtk DataFile Version 2.0
stddevs
ASCII
DATASET RECTILINEAR_GRID
DIMENSIONS        2      1      1
X_COORDINATES        2 float
    0.000000E+00    0.100000E+01
Y_COORDINATES        1 float
    0.100000E+01
Z_COORDINATES        1 float
    0.100000E+01

CELL_DATA       1
SCALARS obsnr        float 1
LOOKUP_TABLE default:mean
    1
SCALARS obstime      float 1
LOOKUP_TABLE default:mean
    0.100000E+00
SCALARS std_head_bef float 1
LOOKUP_TABLE default:mean
    0.131991E+00
SCALARS std_temp_bef float 1
LOOKUP_TABLE default:mean
    0.000000E+00
SCALARS std_conc_bef float 1
LOOKUP_TABLE default:mean
    0.647593E-03
SCALARS std_kz_bef   float 1
LOOKUP_TABLE default:mean
    0.570735E+00
SCALARS std_lz_bef   float 1
LOOKUP_TABLE default:mean
    0.000000E+00
SCALARS std_por_bef  float 1
LOOKUP_TABLE default:mean
    0.000000E+00
SCALARS std_head_aft float 1
LOOKUP_TABLE default:mean
    0.131988E+00
SCALARS std_temp_aft float 1
LOOKUP_TABLE default:mean
    0.000000E+00
SCALARS std_conc_aft float 1
LOOKUP_TABLE default:mean
    0.647584E-03
SCALARS std_kz_aft   float 1
LOOKUP_TABLE default:mean
    0.570730E+00
SCALARS std_lz_aft   float 1
LOOKUP_TABLE default:mean
    0.000000E+00
SCALARS std_por_aft  float 1
LOOKUP_TABLE default:mean
    0.000000E+00
