title = "t_init_final"
variables = "i",  "j",  "k", "x",            "y",            "z", "uindex",   "obsz","obst","cindex",           "head",           "temp",           "pres",           "satn",           "epot",           "vx",           "vy",           "vz",          "por",           "kx",           "ky",           "kz",           "lx",           "ly",           "lz",         "rhof",         "visf",          "qxc",          "qyc",          "qzc",        "sigma",           "lc",          "src",          "jxc",          "jyc",          "jzc"
zone i=   50, j=    1, k=   50, f=point
     1     1     1    5.00000         5.00000         5.00000              1       0       0       0   0.00000000E+00    0.18734203E+02    0.10000000E+00    0.00000000E+00    0.000000E+00   -0.000000E+00    0.000000E+00   -0.945117E-13    0.150000E+00   -0.200000E+02   -0.200000E+02   -0.200000E+02    0.195391E+01    0.195391E+01    0.195391E+01    0.998039E+03    0.103368E-02   -0.694168E-15    0.000000E+00    0.350073E-01    0.100000E-01    0.145002E-04   -0.350000E-02   -0.000000E+00    0.000000E+00   -0.000000E+00
     2     1     1    15.0000         5.00000         5.00000              1       0       0       0   0.00000000E+00    0.18734203E+02    0.10000000E+00    0.00000000E+00    0.000000E+00   -0.000000E+00    0.000000E+00   -0.945117E-13    0.150000E+00   -0.200000E+02   -0.200000E+02   -0.200000E+02    0.195391E+01    0.195391E+01    0.195391E+01    0.998039E+03    0.103368E-02   -0.694168E-15    0.000000E+00    0.350073E-01    0.100000E-01    0.145002E-04   -0.350000E-02   -0.000000E+00    0.000000E+00   -0.000000E+00
     3     1     1    25.0000         5.00000         5.00000              1       0       0       0   0.00000000E+00    0.18734203E+02    0.10000000E+00    0.00000000E+00    0.000000E+00   -0.000000E+00    0.000000E+00   -0.945117E-13    0.150000E+00   -0.200000E+02   -0.200000E+02   -0.200000E+02    0.195391E+01    0.195391E+01    0.195391E+01    0.998039E+03    0.103368E-02   -0.173542E-14    0.000000E+00    0.350073E-01    0.100000E-01    0.145002E-04   -0.350000E-02   -0.000000E+00    0.000000E+00   -0.000000E+00
     4     1     1    35.0000         5.00000         5.00000              1       0       0       0   0.00000000E+00    0.18734203E+02    0.10000000E+00    0.00000000E+00    0.000000E+00   -0.000000E+00    0.000000E+00   -0.945117E-13    0.150000E+00   -0.200000E+02   -0.200000E+02   -0.200000E+02    0.195391E+01    0.195391E+01    0.195391E+01    0.998039E+03    0.103368E-02   -0.312376E-14    0.000000E+00    0.350073E-01    0.100000E-01    0.145002E-04   -0.350000E-02   -0.000000E+00    0.000000E+00   -0.000000E+00
     5     1     1    45.0000         5.00000         5.00000              1       0       0       0   0.00000000E+00    0.18734203E+02    0.10000000E+00    0.00000000E+00    0.000000E+00   -0.000000E+00    0.000000E+00   -0.945117E-13    0.150000E+00   -0.200000E+02   -0.200000E+02   -0.200000E+02    0.195391E+01    0.195391E+01    0.195391E+01    0.998039E+03    0.103368E-02   -0.347084E-14    0.000000E+00    0.350073E-01    0.100000E-01    0.145002E-04   -0.350000E-02   -0.000000E+00    0.000000E+00   -0.000000E+00
     6     1     1    55.0000         5.00000         5.00000              1       0       0       0   0.00000000E+00    0.18734203E+02    0.10000000E+00    0.00000000E+00    0.000000E+00   -0.000000E+00    0.000000E+00   -0.945117E-13    0.150000E+00   -0.200000E+02   -0.200000E+02   -0.200000E+02    0.195391E+01    0.195391E+01    0.195391E+01    0.998039E+03    0.103368E-02   -0.451209E-14    0.000000E+00    0.350073E-01    0.100000E-01    0.145002E-04   -0.350000E-02   -0.000000E+00    0.000000E+00   -0.000000E+00
     7     1     1    65.0000         5.00000         5.00000              1       0       0       0   0.00000000E+00    0.18734203E+02    0.10000000E+00    0.00000000E+00    0.000000E+00   -0.000000E+00    0.000000E+00   -0.945117E-13    0.150000E+00   -0.200000E+02   -0.200000E+02   -0.200000E+02    0.195391E+01    0.195391E+01    0.195391E+01    0.998039E+03    0.103368E-02   -0.624752E-14    0.000000E+00    0.350073E-01    0.100000E-01    0.145002E-04   -0.350000E-02   -0.000000E+00    0.000000E+00   -0.000000E+00
     8     1     1    75.0000         5.00000         5.00000              1       0       0       0   0.00000000E+00    0.18734203E+02    0.10000000E+00    0.00000000E+00    0.000000E+00   -0.000000E+00    0.000000E+00   -0.945117E-13    0.150000E+00   -0.200000E+02   -0.200000E+02   -0.200000E+02    0.195391E+01    0.195391E+01    0.195391E+01    0.998039E+03    0.103368E-02   -0.728877E-14    0.000000E+00    0.350073E-01    0.100000E-01    0.145002E-04   -0.350000E-02   -0.000000E+00    0.000000E+00   -0.000000E+00
     9     1     1    85.0000         5.00000         5.00000              1       0       0       0   0.00000000E+00    0.18734203E+02    0.10000000E+00    0.00000000E+00    0.000000E+00   -0.000000E+00    0.000000E+00   -0.945117E-13    0.150000E+00   -0.200000E+02   -0.200000E+02   -0.200000E+02    0.195391E+01    0.195391E+01    0.195391E+01    0.998039E+03    0.103368E-02   -0.728877E-14    0.000000E+00    0.350073E-01    0.100000E-01    0.145002E-04   -0.350000E-02   -0.000000E+00    0.000000E+00   -0.000000E+00
    10     1     1    95.0000         5.00000         5.00000              1       0       0       0   0.00000000E+00    0.18734203E+02    0.10000000E+00    0.00000000E+00    0.000000E+00   -0.000000E+00    0.000000E+00   -0.945117E-13    0.150000E+00   -0.200000E+02   -0.200000E+02   -0.200000E+02    0.195391E+01    0.195391E+01    0.195391E+01    0.998039E+03    0.103368E-02   -0.728877E-14    0.000000E+00    0.350073E-01    0.100000E-01    0.145002E-04   -0.350000E-02   -0.000000E+00    0.000000E+00   -0.000000E+00
    11     1     1    105.000         5.00000         5.00000              1       0       0       0   0.00000000E+00    0.18734203E+02    0.10000000E+00    0.00000000E+00    0.000000E+00   -0.000000E+00    0.000000E+00   -0.945117E-13    0.150000E+00   -0.200000E+02   -0.200000E+02   -0.200000E+02    0.195391E+01    0.195391E+01    0.195391E+01    0.998039E+03    0.103368E-02   -0.728877E-14    0.000000E+00    0.350073E-01    0.100000E-01    0.145002E-04   -0.350000E-02   -0.000000E+00    0.000000E+00   -0.000000E+00
    12     1     1    115.000         5.00000         5.00000              1       0       0       0   0.00000000E+00    0.18734203E+02    0.10000000E+00    0.00000000E+00    0.000000E+00   -0.000000E+00    0.000000E+00   -0.945117E-13    0.150000E+00   -0.200000E+02   -0.200000E+02   -0.200000E+02    0.195391E+01    0.195391E+01    0.195391E+01    0.998039E+03    0.103368E-02   -0.590043E-14    0.000000E+00    0.350073E-01    0.100000E-01    0.145002E-04   -0.350000E-02   -0.000000E+00    0.000000E+00   -0.000000E+00
    13     1     1    125.000         5.00000         5.00000              1       0       0       0   0.00000000E+00    0.18734203E+02    0.10000000E+00    0.00000000E+00    0.000000E+00   -0.000000E+00    0.000000E+00   -0.945117E-13    0.150000E+00   -0.200000E+02   -0.200000E+02   -0.200000E+02    0.195391E+01    0.195391E+01    0.195391E+01    0.998039E+03    0.103368E-02   -0.485918E-14    0.000000E+00    0.350073E-01    0.100000E-01    0.145002E-04   -0.350000E-02   -0.000000E+00    0.000000E+00   -0.000000E+00
    14     1     1    135.000         5.00000         5.00000              1       0       0       0   0.00000000E+00    0.18734203E+02    0.10000000E+00    0.00000000E+00    0.000000E+00   -0.000000E+00    0.000000E+00   -0.945117E-13    0.150000E+00   -0.200000E+02   -0.200000E+02   -0.200000E+02    0.195391E+01    0.195391E+01    0.195391E+01    0.998039E+03    0.103368E-02   -0.451209E-14    0.000000E+00    0.350073E-01    0.100000E-01    0.145002E-04   -0.350000E-02   -0.000000E+00    0.000000E+00   -0.000000E+00
    15     1     1    145.000         5.00000         5.00000              1       0       0       0   0.00000000E+00    0.18734203E+02    0.10000000E+00    0.00000000E+00    0.000000E+00   -0.000000E+00    0.000000E+00   -0.945117E-13    0.150000E+00   -0.200000E+02   -0.200000E+02   -0.200000E+02    0.195391E+01    0.195391E+01    0.195391E+01    0.998039E+03    0.103368E-02   -0.347084E-14    0.000000E+00    0.350073E-01    0.100000E-01    0.145002E-04   -0.350000E-02   -0.000000E+00    0.000000E+00   -0.000000E+00
    16     1     1    155.000         5.00000         5.00000              1       0       0       0   0.00000000E+00    0.18734203E+02    0.10000000E+00    0.00000000E+00    0.000000E+00   -0.000000E+00    0.000000E+00   -0.945117E-13    0.150000E+00   -0.200000E+02   -0.200000E+02   -0.200000E+02    0.195391E+01    0.195391E+01    0.195391E+01    0.998039E+03    0.103368E-02   -0.208251E-14    0.000000E+00    0.350073E-01    0.100000E-01    0.145002E-04   -0.350000E-02   -0.000000E+00    0.000000E+00   -0.000000E+00
    17     1     1    165.000         5.00000         5.00000              1       0       0       0   0.00000000E+00    0.18734203E+02    0.10000000E+00    0.00000000E+00    0.000000E+00   -0.000000E+00    0.000000E+00   -0.945117E-13    0.150000E+00   -0.200000E+02   -0.200000E+02   -0.200000E+02    0.195391E+01    0.195391E+01    0.195391E+01    0.998039E+03    0.103368E-02   -0.208251E-14    0.000000E+00    0.350073E-01    0.100000E-01    0.145002E-04   -0.350000E-02   -0.000000E+00    0.000000E+00   -0.000000E+00
    18     1     1    175.000         5.00000         5.00000              1       0       0       0   0.00000000E+00    0.18734203E+02    0.10000000E+00    0.00000000E+00    0.000000E+00   -0.000000E+00    0.000000E+00   -0.945117E-13    0.150000E+00   -0.200000E+02   -0.200000E+02   -0.200000E+02    0.195391E+01    0.195391E+01    0.195391E+01    0.998039E+03    0.103368E-02   -0.277667E-14    0.000000E+00    0.350073E-01    0.100000E-01    0.145002E-04   -0.350000E-02   -0.000000E+00    0.000000E+00   -0.000000E+00
    19     1     1    185.000         5.00000         5.00000              1       0       0       0   0.00000000E+00    0.18734203E+02    0.10000000E+00    0.00000000E+00    0.000000E+00   -0.000000E+00    0.000000E+00   -0.945117E-13    0.150000E+00   -0.200000E+02   -0.200000E+02   -0.200000E+02    0.195391E+01    0.195391E+01    0.195391E+01    0.998039E+03    0.103368E-02   -0.312376E-14    0.000000E+00    0.350073E-01    0.100000E-01    0.145002E-04   -0.350000E-02   -0.000000E+00    0.000000E+00   -0.000000E+00
    20     1     1    195.000         5.00000         5.00000              1       0       0       0   0.00000000E+00    0.18734203E+02    0.10000000E+00    0.00000000E+00    0.000000E+00   -0.000000E+00    0.000000E+00   -0.945117E-13    0.150000E+00   -0.200000E+02   -0.200000E+02   -0.200000E+02    0.195391E+01    0.195391E+01    0.195391E+01    0.998039E+03    0.103368E-02   -0.381793E-14    0.000000E+00    0.350073E-01    0.100000E-01    0.145002E-04   -0.350000E-02   -0.000000E+00    0.000000E+00   -0.000000E+00
    21     1     1    205.000         5.00000         5.00000              1       0       0       0   0.00000000E+00    0.18734203E+02    0.10000000E+00    0.00000000E+00    0.000000E+00   -0.000000E+00    0.000000E+00   -0.945117E-13    0.150000E+00   -0.200000E+02   -0.200000E+02   -0.200000E+02    0.195391E+01    0.195391E+01    0.195391E+01    0.998039E+03    0.103368E-02   -0.416501E-14    0.000000E+00    0.350073E-01    0.100000E-01    0.145002E-04   -0.350000E-02   -0.000000E+00    0.000000E+00   -0.000000E+00
    22     1     1    215.000         5.00000         5.00000              1       0       0       0   0.00000000E+00    0.18734203E+02    0.10000000E+00    0.00000000E+00    0.000000E+00   -0.000000E+00    0.000000E+00   -0.945117E-13    0.150000E+00   -0.200000E+02   -0.200000E+02   -0.200000E+02    0.195391E+01    0.195391E+01    0.195391E+01    0.998039E+03    0.103368E-02   -0.416501E-14    0.000000E+00    0.350073E-01    0.100000E-01    0.145002E-04   -0.350000E-02   -0.000000E+00    0.000000E+00   -0.000000E+00
    23     1     1    225.000         5.00000         5.00000              1       0       0       0   0.00000000E+00    0.18734203E+02    0.10000000E+00    0.00000000E+00    0.000000E+00   -0.000000E+00    0.000000E+00   -0.945117E-13    0.150000E+00   -0.200000E+02   -0.200000E+02   -0.200000E+02    0.195391E+01    0.195391E+01    0.195391E+01    0.998039E+03    0.103368E-02   -0.381793E-14    0.000000E+00    0.350073E-01    0.100000E-01    0.145002E-04   -0.350000E-02   -0.000000E+00    0.000000E+00   -0.000000E+00
    24     1     1    235.000         5.00000         5.00000              1       0       0       0   0.00000000E+00    0.18734203E+02    0.10000000E+00    0.00000000E+00    0.000000E+00   -0.000000E+00    0.000000E+00   -0.945117E-13    0.150000E+00   -0.200000E+02   -0.200000E+02   -0.200000E+02    0.195391E+01    0.195391E+01    0.195391E+01    0.998039E+03    0.103368E-02   -0.277667E-14    0.000000E+00    0.350073E-01    0.100000E-01    0.145002E-04   -0.350000E-02   -0.000000E+00    0.000000E+00   -0.000000E+00
    25     1     1    245.000         5.00000         5.00000              1       0       0       0   0.00000000E+00    0.18734203E+02    0.10000000E+00    0.00000000E+00    0.000000E+00   -0.000000E+00    0.000000E+00   -0.945117E-13    0.150000E+00   -0.200000E+02   -0.200000E+02   -0.200000E+02    0.195391E+01    0.195391E+01    0.195391E+01    0.998039E+03    0.103368E-02   -0.173542E-14    0.000000E+00    0.350073E-01    0.100000E-01    0.145002E-04   -0.350000E-02   -0.000000E+00    0.000000E+00   -0.000000E+00
    26     1     1    255.000         5.00000         5.00000              1       0       0       0   0.00000000E+00    0.18734203E+02    0.10000000E+00    0.00000000E+00    0.000000E+00   -0.000000E+00    0.000000E+00   -0.945117E-13    0.150000E+00   -0.200000E+02   -0.200000E+02   -0.200000E+02    0.195391E+01    0.195391E+01    0.195391E+01    0.998039E+03    0.103368E-02   -0.173542E-14    0.000000E+00    0.350073E-01    0.100000E-01    0.145002E-04   -0.350000E-02   -0.000000E+00    0.000000E+00   -0.000000E+00
    27     1     1    265.000         5.00000         5.00000              1       0       0       0   0.00000000E+00    0.18734203E+02    0.10000000E+00    0.00000000E+00    0.000000E+00   -0.000000E+00    0.000000E+00   -0.945117E-13    0.150000E+00   -0.200000E+02   -0.200000E+02   -0.200000E+02    0.195391E+01    0.195391E+01    0.195391E+01    0.998039E+03    0.103368E-02   -0.242959E-14    0.000000E+00    0.350073E-01    0.100000E-01    0.145002E-04   -0.350000E-02   -0.000000E+00    0.000000E+00   -0.000000E+00
    28     1     1    275.000         5.00000         5.00000              1       0       0       0   0.00000000E+00    0.18734203E+02    0.10000000E+00    0.00000000E+00    0.000000E+00   -0.000000E+00    0.000000E+00   -0.945117E-13    0.150000E+00   -0.200000E+02   -0.200000E+02   -0.200000E+02    0.195391E+01    0.195391E+01    0.195391E+01    0.998039E+03    0.103368E-02   -0.277667E-14    0.000000E+00    0.350073E-01    0.100000E-01    0.145002E-04   -0.350000E-02   -0.000000E+00    0.000000E+00   -0.000000E+00
    29     1     1    285.000         5.00000         5.00000              1       0       0       0   0.00000000E+00    0.18734203E+02    0.10000000E+00    0.00000000E+00    0.000000E+00   -0.000000E+00    0.000000E+00   -0.945117E-13    0.150000E+00   -0.200000E+02   -0.200000E+02   -0.200000E+02    0.195391E+01    0.195391E+01    0.195391E+01    0.998039E+03    0.103368E-02   -0.173542E-14    0.000000E+00    0.350073E-01    0.100000E-01    0.145002E-04   -0.350000E-02   -0.000000E+00    0.000000E+00   -0.000000E+00
    30     1     1    295.000         5.00000         5.00000              1       0       0       0   0.00000000E+00    0.18734203E+02    0.10000000E+00    0.00000000E+00    0.000000E+00   -0.000000E+00    0.000000E+00   -0.945117E-13    0.150000E+00   -0.200000E+02   -0.200000E+02   -0.200000E+02    0.195391E+01    0.195391E+01    0.195391E+01    0.998039E+03    0.103368E-02    0.000000E+00    0.000000E+00    0.350073E-01    0.100000E-01    0.145002E-04   -0.350000E-02   -0.000000E+00    0.000000E+00   -0.000000E+00
    31     1     1    305.000         5.00000         5.00000              1       0       0       0   0.00000000E+00    0.18734203E+02    0.10000000E+00    0.00000000E+00    0.000000E+00   -0.000000E+00    0.000000E+00   -0.945117E-13    0.150000E+00   -0.200000E+02   -0.200000E+02   -0.200000E+02    0.195391E+01    0.195391E+01    0.195391E+01    0.998039E+03    0.103368E-02    0.208251E-14    0.000000E+00    0.350073E-01    0.100000E-01    0.145002E-04   -0.350000E-02   -0.000000E+00    0.000000E+00   -0.000000E+00
    32     1     1    315.000         5.00000         5.00000              1       0       0       0   0.00000000E+00    0.18734203E+02    0.10000000E+00    0.00000000E+00    0.000000E+00   -0.000000E+00    0.000000E+00   -0.945117E-13    0.150000E+00   -0.200000E+02   -0.200000E+02   -0.200000E+02    0.195391E+01    0.195391E+01    0.195391E+01    0.998039E+03    0.103368E-02    0.312376E-14    0.000000E+00    0.350073E-01    0.100000E-01    0.145002E-04   -0.350000E-02   -0.000000E+00    0.000000E+00   -0.000000E+00
    33     1     1    325.000         5.00000         5.00000              1       0       0       0   0.00000000E+00    0.18734203E+02    0.10000000E+00    0.00000000E+00    0.000000E+00   -0.000000E+00    0.000000E+00   -0.945117E-13    0.150000E+00   -0.200000E+02   -0.200000E+02   -0.200000E+02    0.195391E+01    0.195391E+01    0.195391E+01    0.998039E+03    0.103368E-02    0.347084E-14    0.000000E+00    0.350073E-01    0.100000E-01    0.145002E-04   -0.350000E-02   -0.000000E+00    0.000000E+00   -0.000000E+00
    34     1     1    335.000         5.00000         5.00000              1       0       0       0   0.00000000E+00    0.18734203E+02    0.10000000E+00    0.00000000E+00    0.000000E+00   -0.000000E+00    0.000000E+00   -0.945117E-13    0.150000E+00   -0.200000E+02   -0.200000E+02   -0.200000E+02    0.195391E+01    0.195391E+01    0.195391E+01    0.998039E+03    0.103368E-02    0.416501E-14    0.000000E+00    0.350073E-01    0.100000E-01    0.145002E-04   -0.350000E-02   -0.000000E+00    0.000000E+00   -0.000000E+00
    35     1     1    345.000         5.00000         5.00000              1       0       0       0   0.00000000E+00    0.18734203E+02    0.10000000E+00    0.00000000E+00    0.000000E+00   -0.000000E+00    0.000000E+00   -0.945117E-13    0.150000E+00   -0.200000E+02   -0.200000E+02   -0.200000E+02    0.195391E+01    0.195391E+01    0.195391E+01    0.998039E+03    0.103368E-02    0.416501E-14    0.000000E+00    0.350073E-01    0.100000E-01    0.145002E-04   -0.350000E-02   -0.000000E+00    0.000000E+00   -0.000000E+00
    36     1     1    355.000         5.00000         5.00000              1       0       0       0   0.00000000E+00    0.18734203E+02    0.10000000E+00    0.00000000E+00    0.000000E+00   -0.000000E+00    0.000000E+00   -0.945117E-13    0.150000E+00   -0.200000E+02   -0.200000E+02   -0.200000E+02    0.195391E+01    0.195391E+01    0.195391E+01    0.998039E+03    0.103368E-02    0.381793E-14    0.000000E+00    0.350073E-01    0.100000E-01    0.145002E-04   -0.350000E-02   -0.000000E+00    0.000000E+00   -0.000000E+00
    37     1     1    365.000         5.00000         5.00000              1       0       0       0   0.00000000E+00    0.18734203E+02    0.10000000E+00    0.00000000E+00    0.000000E+00   -0.000000E+00    0.000000E+00   -0.945117E-13    0.150000E+00   -0.200000E+02   -0.200000E+02   -0.200000E+02    0.195391E+01    0.195391E+01    0.195391E+01    0.998039E+03    0.103368E-02    0.347084E-14    0.000000E+00    0.350073E-01    0.100000E-01    0.145002E-04   -0.350000E-02   -0.000000E+00    0.000000E+00   -0.000000E+00
    38     1     1    375.000         5.00000         5.00000              1       0       0       0   0.00000000E+00    0.18734203E+02    0.10000000E+00    0.00000000E+00    0.000000E+00   -0.000000E+00    0.000000E+00   -0.945117E-13    0.150000E+00   -0.200000E+02   -0.200000E+02   -0.200000E+02    0.195391E+01    0.195391E+01    0.195391E+01    0.998039E+03    0.103368E-02    0.416501E-14    0.000000E+00    0.350073E-01    0.100000E-01    0.145002E-04   -0.350000E-02   -0.000000E+00    0.000000E+00   -0.000000E+00
    39     1     1    385.000         5.00000         5.00000              1       0       0       0   0.00000000E+00    0.18734203E+02    0.10000000E+00    0.00000000E+00    0.000000E+00   -0.000000E+00    0.000000E+00   -0.945117E-13    0.150000E+00   -0.200000E+02   -0.200000E+02   -0.200000E+02    0.195391E+01    0.195391E+01    0.195391E+01    0.998039E+03    0.103368E-02    0.555335E-14    0.000000E+00    0.350073E-01    0.100000E-01    0.145002E-04   -0.350000E-02   -0.000000E+00    0.000000E+00   -0.000000E+00
    40     1     1    395.000         5.00000         5.00000              1       0       0       0   0.00000000E+00    0.18734203E+02    0.10000000E+00    0.00000000E+00    0.000000E+00   -0.000000E+00    0.000000E+00   -0.945117E-13    0.150000E+00   -0.200000E+02   -0.200000E+02   -0.200000E+02    0.195391E+01    0.195391E+01    0.195391E+01    0.998039E+03    0.103368E-02    0.555335E-14    0.000000E+00    0.350073E-01    0.100000E-01    0.145002E-04   -0.350000E-02   -0.000000E+00    0.000000E+00   -0.000000E+00
    41     1     1    405.000         5.00000         5.00000              1       0       0       0   0.00000000E+00    0.18734203E+02    0.10000000E+00    0.00000000E+00    0.000000E+00   -0.000000E+00    0.000000E+00   -0.945117E-13    0.150000E+00   -0.200000E+02   -0.200000E+02   -0.200000E+02    0.195391E+01    0.195391E+01    0.195391E+01    0.998039E+03    0.103368E-02    0.485918E-14    0.000000E+00    0.350073E-01    0.100000E-01    0.145002E-04   -0.350000E-02   -0.000000E+00    0.000000E+00   -0.000000E+00
    42     1     1    415.000         5.00000         5.00000              1       0       0       0   0.00000000E+00    0.18734203E+02    0.10000000E+00    0.00000000E+00    0.000000E+00   -0.000000E+00    0.000000E+00   -0.945117E-13    0.150000E+00   -0.200000E+02   -0.200000E+02   -0.200000E+02    0.195391E+01    0.195391E+01    0.195391E+01    0.998039E+03    0.103368E-02    0.451209E-14    0.000000E+00    0.350073E-01    0.100000E-01    0.145002E-04   -0.350000E-02   -0.000000E+00    0.000000E+00   -0.000000E+00
    43     1     1    425.000         5.00000         5.00000              1       0       0       0   0.00000000E+00    0.18734203E+02    0.10000000E+00    0.00000000E+00    0.000000E+00   -0.000000E+00    0.000000E+00   -0.945117E-13    0.150000E+00   -0.200000E+02   -0.200000E+02   -0.200000E+02    0.195391E+01    0.195391E+01    0.195391E+01    0.998039E+03    0.103368E-02    0.381793E-14    0.000000E+00    0.350073E-01    0.100000E-01    0.145002E-04   -0.350000E-02   -0.000000E+00    0.000000E+00   -0.000000E+00
    44     1     1    435.000         5.00000         5.00000              1       0       0       0   0.00000000E+00    0.18734203E+02    0.10000000E+00    0.00000000E+00    0.000000E+00   -0.000000E+00    0.000000E+00   -0.945117E-13    0.150000E+00   -0.200000E+02   -0.200000E+02   -0.200000E+02    0.195391E+01    0.195391E+01    0.195391E+01    0.998039E+03    0.103368E-02    0.277667E-14    0.000000E+00    0.350073E-01    0.100000E-01    0.145002E-04   -0.350000E-02   -0.000000E+00    0.000000E+00   -0.000000E+00
    45     1     1    445.000         5.00000         5.00000              1       0       0       0   0.00000000E+00    0.18734203E+02    0.10000000E+00    0.00000000E+00    0.000000E+00   -0.000000E+00    0.000000E+00   -0.945117E-13    0.150000E+00   -0.200000E+02   -0.200000E+02   -0.200000E+02    0.195391E+01    0.195391E+01    0.195391E+01    0.998039E+03    0.103368E-02    0.208251E-14    0.000000E+00    0.350073E-01    0.100000E-01    0.145002E-04   -0.350000E-02   -0.000000E+00    0.000000E+00   -0.000000E+00
    46     1     1    455.000         5.00000         5.00000              1       0       0       0   0.00000000E+00    0.18734203E+02    0.10000000E+00    0.00000000E+00    0.000000E+00   -0.000000E+00    0.000000E+00   -0.945117E-13    0.150000E+00   -0.200000E+02   -0.200000E+02   -0.200000E+02    0.195391E+01    0.195391E+01    0.195391E+01    0.998039E+03    0.103368E-02    0.208251E-14    0.000000E+00    0.350073E-01    0.100000E-01    0.145002E-04   -0.350000E-02   -0.000000E+00    0.000000E+00   -0.000000E+00
    47     1     1    465.000         5.00000         5.00000              1       0       0       0   0.00000000E+00    0.18734203E+02    0.10000000E+00    0.00000000E+00    0.000000E+00   -0.000000E+00    0.000000E+00   -0.945117E-13    0.150000E+00   -0.200000E+02   -0.200000E+02   -0.200000E+02    0.195391E+01    0.195391E+01    0.195391E+01    0.998039E+03    0.103368E-02    0.208251E-14    0.000000E+00    0.350073E-01    0.100000E-01    0.145002E-04   -0.350000E-02   -0.000000E+00    0.000000E+00   -0.000000E+00
    48     1     1    475.000         5.00000         5.00000              1       0       0       0   0.00000000E+00    0.18734203E+02    0.10000000E+00    0.00000000E+00    0.000000E+00   -0.000000E+00    0.000000E+00   -0.945117E-13    0.150000E+00   -0.200000E+02   -0.200000E+02   -0.200000E+02    0.195391E+01    0.195391E+01    0.195391E+01    0.998039E+03    0.103368E-02    0.208251E-14    0.000000E+00    0.350073E-01    0.100000E-01    0.145002E-04   -0.350000E-02   -0.000000E+00    0.000000E+00   -0.000000E+00
    49     1     1    485.000         5.00000         5.00000              1       0       0       0   0.00000000E+00    0.18734203E+02    0.10000000E+00    0.00000000E+00    0.000000E+00   -0.000000E+00    0.000000E+00   -0.945117E-13    0.150000E+00   -0.200000E+02   -0.200000E+02   -0.200000E+02    0.195391E+01    0.195391E+01    0.195391E+01    0.998039E+03    0.103368E-02    0.138834E-14    0.000000E+00    0.350073E-01    0.100000E-01    0.145002E-04   -0.350000E-02   -0.000000E+00    0.000000E+00   -0.000000E+00
    50     1     1    495.000         5.00000         5.00000              1       0       0       0   0.00000000E+00    0.18734203E+02    0.10000000E+00    0.00000000E+00    0.000000E+00   -0.000000E+00    0.000000E+00   -0.945117E-13    0.150000E+00   -0.200000E+02   -0.200000E+02   -0.200000E+02    0.195391E+01    0.195391E+01    0.195391E+01    0.998039E+03    0.103368E-02    0.694168E-15    0.000000E+00    0.350073E-01    0.100000E-01    0.145002E-04   -0.350000E-02   -0.000000E+00    0.000000E+00   -0.000000E+00
     1     1     2    5.00000         5.00000         15.0000              1       0       0       0   0.00000000E+00    0.18555056E+02    0.10000000E+00    0.00000000E+00    0.000000E+00   -0.000000E+00    0.000000E+00   -0.943064E-13    0.150000E+00   -0.200000E+02   -0.200000E+02   -0.200000E+02    0.195432E+01    0.195432E+01    0.195432E+01    0.998070E+03    0.103822E-02   -0.208294E-14    0.000000E+00    0.350073E-01    0.100000E-01    0.144744E-04   -0.100000E-11   -0.000000E+00    0.000000E+00   -0.000000E+00
     2     1     2    15.0000         5.00000         15.0000              1       0       0       0   0.00000000E+00    0.18555056E+02    0.10000000E+00    0.00000000E+00    0.000000E+00   -0.000000E+00    0.000000E+00   -0.943064E-13    0.150000E+00   -0.200000E+02   -0.200000E+02   -0.200000E+02    0.195432E+01    0.195432E+01    0.195432E+01    0.998070E+03    0.103822E-02   -0.694312E-15    0.000000E+00    0.350073E-01    0.100000E-01    0.144744E-04   -0.100000E-11   -0.000000E+00    0.000000E+00   -0.000000E+00
     3     1     2    25.0000         5.00000         15.0000              1       0       0       0   0.00000000E+00    0.18555056E+02    0.10000000E+00    0.00000000E+00    0.000000E+00   -0.000000E+00    0.000000E+00   -0.943064E-13    0.150000E+00   -0.200000E+02   -0.200000E+02   -0.200000E+02    0.195432E+01    0.195432E+01    0.195432E+01    0.998070E+03    0.103822E-02   -0.173578E-14    0.000000E+00    0.350073E-01    0.100000E-01    0.144744E-04   -0.100000E-11   -0.000000E+00    0.000000E+00   -0.000000E+00
     4     1     2    35.0000         5.00000         15.0000              1       0       0       0   0.00000000E+00    0.18555056E+02    0.10000000E+00    0.00000000E+00    0.000000E+00   -0.000000E+00    0.000000E+00   -0.943064E-13    0.150000E+00   -0.200000E+02   -0.200000E+02   -0.200000E+02    0.195432E+01    0.195432E+01    0.195432E+01    0.998070E+03    0.103822E-02   -0.381872E-14    0.000000E+00    0.350073E-01    0.100000E-01    0.144744E-04   -0.100000E-11   -0.000000E+00    0.000000E+00   -0.000000E+00
     5     1     2    45.0000         5.00000         15.0000              1       0       0       0   0.00000000E+00    0.18555056E+02    0.10000000E+00    0.00000000E+00    0.000000E+00   -0.000000E+00    0.000000E+00   -0.943064E-13    0.150000E+00   -0.200000E+02   -0.200000E+02   -0.200000E+02    0.195432E+01    0.195432E+01    0.195432E+01    0.998070E+03    0.103822E-02   -0.312441E-14    0.000000E+00    0.350073E-01    0.100000E-01    0.144744E-04   -0.100000E-11   -0.000000E+00    0.000000E+00   -0.000000E+00
     6     1     2    55.0000         5.00000         15.0000              1       0       0       0   0.00000000E+00    0.18555056E+02    0.10000000E+00    0.00000000E+00    0.000000E+00   -0.000000E+00    0.000000E+00   -0.943064E-13    0.150000E+00   -0.200000E+02   -0.200000E+02   -0.200000E+02    0.195432E+01    0.195432E+01    0.195432E+01    0.998070E+03    0.103822E-02   -0.381872E-14    0.000000E+00    0.350073E-01    0.100000E-01    0.144744E-04   -0.100000E-11   -0.000000E+00    0.000000E+00   -0.000000E+00