# vtk DataFile Version 2.0
tiny_adv_init_final                                                                                                                                                                                                                                             
ASCII
DATASET RECTILINEAR_GRID
DIMENSIONS        8      1      4
X_COORDINATES        8 float
    0.500000E+00    0.150000E+01    0.250000E+01    0.350000E+01    0.450000E+01    0.550000E+01    0.650000E+01    0.750000E+01
Y_COORDINATES        1 float
    0.500000E+00
Z_COORDINATES        4 float
    0.500000E+00    0.150000E+01    0.250000E+01    0.350000E+01

POINT_DATA      32
SCALARS uindex int 1
LOOKUP_TABLE default
         1         1         1         1         1         1         1         1         1         1         1         1         1         1         1         1         1         1         1         1         1         1         1         1         1
         1         1         1         1         1         1         1
SCALARS por float 1
LOOKUP_TABLE default
    0.250000E+00    0.250000E+00    0.250000E+00    0.250000E+00    0.250000E+00    0.250000E+00    0.250000E+00    0.250000E+00    0.250000E+00    0.250000E+00    0.250000E+00    0.250000E+00    0.250000E+00    0.250000E+00    0.250000E+00    0.250000E+00    0.250000E+00    0.250000E+00    0.250000E+00    0.250000E+00    0.250000E+00    0.250000E+00    0.250000E+00    0.250000E+00    0.250000E+00    0.250000E+00    0.250000E+00    0.250000E+00    0.250000E+00    0.250000E+00    0.250000E+00    0.250000E+00
SCALARS temp float 1
LOOKUP_TABLE default
    0.120000E+02    0.120000E+02    0.120000E+02    0.120000E+02    0.120000E+02    0.120000E+02    0.120000E+02    0.120000E+02    0.113329E+02    0.113329E+02    0.113329E+02    0.113329E+02    0.113329E+02    0.113329E+02    0.113329E+02    0.113329E+02    0.106663E+02    0.106663E+02    0.106663E+02    0.106663E+02    0.106663E+02    0.106663E+02    0.106663E+02    0.106663E+02    0.100000E+02    0.100000E+02    0.100000E+02    0.100000E+02    0.100000E+02    0.100000E+02    0.100000E+02    0.100000E+02
SCALARS lx float 1
LOOKUP_TABLE default
    0.197264E+01    0.197264E+01    0.197264E+01    0.197264E+01    0.197264E+01    0.197264E+01    0.197264E+01    0.197264E+01    0.197380E+01    0.197380E+01    0.197380E+01    0.197380E+01    0.197380E+01    0.197380E+01    0.197380E+01    0.197380E+01    0.197495E+01    0.197495E+01    0.197495E+01    0.197495E+01    0.197495E+01    0.197495E+01    0.197495E+01    0.197495E+01    0.197610E+01    0.197610E+01    0.197610E+01    0.197610E+01    0.197610E+01    0.197610E+01    0.197610E+01    0.197610E+01
SCALARS ly float 1
LOOKUP_TABLE default
    0.197264E+01    0.197264E+01    0.197264E+01    0.197264E+01    0.197264E+01    0.197264E+01    0.197264E+01    0.197264E+01    0.197380E+01    0.197380E+01    0.197380E+01    0.197380E+01    0.197380E+01    0.197380E+01    0.197380E+01    0.197380E+01    0.197495E+01    0.197495E+01    0.197495E+01    0.197495E+01    0.197495E+01    0.197495E+01    0.197495E+01    0.197495E+01    0.197610E+01    0.197610E+01    0.197610E+01    0.197610E+01    0.197610E+01    0.197610E+01    0.197610E+01    0.197610E+01
SCALARS lz float 1
LOOKUP_TABLE default
    0.197264E+01    0.197264E+01    0.197264E+01    0.197264E+01    0.197264E+01    0.197264E+01    0.197264E+01    0.197264E+01    0.197380E+01    0.197380E+01    0.197380E+01    0.197380E+01    0.197380E+01    0.197380E+01    0.197380E+01    0.197380E+01    0.197495E+01    0.197495E+01    0.197495E+01    0.197495E+01    0.197495E+01    0.197495E+01    0.197495E+01    0.197495E+01    0.197610E+01    0.197610E+01    0.197610E+01    0.197610E+01    0.197610E+01    0.197610E+01    0.197610E+01    0.197610E+01
VECTORS q float
   -0.000000E+00    0.000000E+00    0.131625E+01
   -0.000000E+00    0.000000E+00    0.131625E+01
   -0.000000E+00    0.000000E+00    0.131625E+01
   -0.000000E+00    0.000000E+00    0.131625E+01
   -0.000000E+00    0.000000E+00    0.131625E+01
   -0.000000E+00    0.000000E+00    0.131625E+01
   -0.000000E+00    0.000000E+00    0.131625E+01
   -0.000000E+00    0.000000E+00    0.131625E+01
    0.616981E-10    0.000000E+00    0.131625E+01
    0.254811E-10    0.000000E+00    0.131625E+01
   -0.852700E-11    0.000000E+00    0.131625E+01
   -0.270501E-11    0.000000E+00    0.131625E+01
    0.291012E-11    0.000000E+00    0.131625E+01
    0.506817E-11    0.000000E+00    0.131625E+01
    0.288733E-11    0.000000E+00    0.131625E+01
    0.550469E-12    0.000000E+00    0.131625E+01
    0.163658E-10    0.000000E+00    0.131625E+01
    0.101703E-10    0.000000E+00    0.131625E+01
    0.314336E-11    0.000000E+00    0.131625E+01
    0.309775E-11    0.000000E+00    0.131625E+01
    0.399936E-11    0.000000E+00    0.131625E+01
    0.256626E-11    0.000000E+00    0.131625E+01
   -0.147345E-11    0.000000E+00    0.131625E+01
   -0.396428E-11    0.000000E+00    0.131625E+01
   -0.000000E+00    0.000000E+00    0.131625E+01
   -0.000000E+00    0.000000E+00    0.131625E+01
   -0.000000E+00    0.000000E+00    0.131625E+01
   -0.000000E+00    0.000000E+00    0.131625E+01
   -0.000000E+00    0.000000E+00    0.131625E+01
   -0.000000E+00    0.000000E+00    0.131625E+01
   -0.000000E+00    0.000000E+00    0.131625E+01
   -0.000000E+00    0.000000E+00    0.131625E+01
SCALARS h float 1
LOOKUP_TABLE default
    0.100000E-19    0.100000E-19    0.100000E-19    0.100000E-19    0.100000E-19    0.100000E-19    0.100000E-19    0.100000E-19    0.100000E-19    0.100000E-19    0.100000E-19    0.100000E-19    0.100000E-19    0.100000E-19    0.100000E-19    0.100000E-19    0.100000E-19    0.100000E-19    0.100000E-19    0.100000E-19    0.100000E-19    0.100000E-19    0.100000E-19    0.100000E-19    0.100000E-19    0.100000E-19    0.100000E-19    0.100000E-19    0.100000E-19    0.100000E-19    0.100000E-19    0.100000E-19
