# vtk DataFile Version 2.0
tiny_adv_final                                                                                                                                                                                                                                                  
ASCII
DATASET RECTILINEAR_GRID
DIMENSIONS        8      1      4
X_COORDINATES        8 float
    0.500000E+00    0.150000E+01    0.250000E+01    0.350000E+01    0.450000E+01    0.550000E+01    0.650000E+01    0.750000E+01
Y_COORDINATES        1 float
    0.500000E+00
Z_COORDINATES        4 float
    0.500000E+00    0.150000E+01    0.250000E+01    0.350000E+01

POINT_DATA      32
SCALARS uindex int 1
LOOKUP_TABLE default
         1         1         1         1         1         1         1         1         1         1         1         1         1         1         1         1         1         1         1         1         1         1         1         1         1
         1         1         1         1         1         1         1
SCALARS por float 1
LOOKUP_TABLE default
    0.250000E+00    0.250000E+00    0.250000E+00    0.250000E+00    0.250000E+00    0.250000E+00    0.250000E+00    0.250000E+00    0.250000E+00    0.250000E+00    0.250000E+00    0.250000E+00    0.250000E+00    0.250000E+00    0.250000E+00    0.250000E+00    0.250000E+00    0.250000E+00    0.250000E+00    0.250000E+00    0.250000E+00    0.250000E+00    0.250000E+00    0.250000E+00    0.250000E+00    0.250000E+00    0.250000E+00    0.250000E+00    0.250000E+00    0.250000E+00    0.250000E+00    0.250000E+00
SCALARS temp float 1
LOOKUP_TABLE default
    0.120000E+02    0.120000E+02    0.120000E+02    0.120000E+02    0.120000E+02    0.120000E+02    0.120000E+02    0.120000E+02    0.106063E+02    0.107366E+02    0.109418E+02    0.111986E+02    0.114497E+02    0.115133E+02    0.112592E+02    0.110261E+02    0.100757E+02    0.101431E+02    0.102826E+02    0.105289E+02    0.108718E+02    0.109423E+02    0.104960E+02    0.102646E+02    0.100000E+02    0.100000E+02    0.100000E+02    0.100000E+02    0.100000E+02    0.100000E+02    0.100000E+02    0.100000E+02
SCALARS lx float 1
LOOKUP_TABLE default
    0.197264E+01    0.197264E+01    0.197264E+01    0.197264E+01    0.197264E+01    0.197264E+01    0.197264E+01    0.197264E+01    0.197505E+01    0.197483E+01    0.197447E+01    0.197403E+01    0.197360E+01    0.197349E+01    0.197393E+01    0.197433E+01    0.197597E+01    0.197585E+01    0.197561E+01    0.197519E+01    0.197459E+01    0.197447E+01    0.197524E+01    0.197564E+01    0.197610E+01    0.197610E+01    0.197610E+01    0.197610E+01    0.197610E+01    0.197610E+01    0.197610E+01    0.197610E+01
SCALARS ly float 1
LOOKUP_TABLE default
    0.197264E+01    0.197264E+01    0.197264E+01    0.197264E+01    0.197264E+01    0.197264E+01    0.197264E+01    0.197264E+01    0.197505E+01    0.197483E+01    0.197447E+01    0.197403E+01    0.197360E+01    0.197349E+01    0.197393E+01    0.197433E+01    0.197597E+01    0.197585E+01    0.197561E+01    0.197519E+01    0.197459E+01    0.197447E+01    0.197524E+01    0.197564E+01    0.197610E+01    0.197610E+01    0.197610E+01    0.197610E+01    0.197610E+01    0.197610E+01    0.197610E+01    0.197610E+01
SCALARS lz float 1
LOOKUP_TABLE default
    0.197264E+01    0.197264E+01    0.197264E+01    0.197264E+01    0.197264E+01    0.197264E+01    0.197264E+01    0.197264E+01    0.197505E+01    0.197483E+01    0.197447E+01    0.197403E+01    0.197360E+01    0.197349E+01    0.197393E+01    0.197433E+01    0.197597E+01    0.197585E+01    0.197561E+01    0.197519E+01    0.197459E+01    0.197447E+01    0.197524E+01    0.197564E+01    0.197610E+01    0.197610E+01    0.197610E+01    0.197610E+01    0.197610E+01    0.197610E+01    0.197610E+01    0.197610E+01
VECTORS q float
   -0.000000E+00    0.000000E+00    0.275094E+01
   -0.000000E+00    0.000000E+00    0.249370E+01
   -0.000000E+00    0.000000E+00    0.208852E+01
   -0.000000E+00    0.000000E+00    0.158135E+01
   -0.000000E+00    0.000000E+00    0.108587E+01
   -0.000000E+00    0.000000E+00    0.960365E+00
   -0.000000E+00    0.000000E+00    0.146190E+01
   -0.000000E+00    0.000000E+00    0.192196E+01
   -0.257238E+00    0.000000E+00    0.189957E+01
   -0.331211E+00    0.000000E+00    0.183298E+01
   -0.456175E+00    0.000000E+00    0.169518E+01
   -0.501324E+00    0.000000E+00    0.145196E+01
   -0.310494E+00    0.000000E+00    0.111334E+01
    0.188016E+00    0.000000E+00    0.104375E+01
    0.480796E+00    0.000000E+00    0.148438E+01
    0.460054E+00    0.000000E+00    0.171294E+01
   -0.133198E+00    0.000000E+00    0.598902E+00
   -0.204396E+00    0.000000E+00    0.727521E+00
   -0.381016E+00    0.000000E+00    0.930113E+00
   -0.581840E+00    0.000000E+00    0.118370E+01
   -0.408208E+00    0.000000E+00    0.143144E+01
    0.371045E+00    0.000000E+00    0.149419E+01
    0.669190E+00    0.000000E+00    0.124342E+01
    0.457116E+00    0.000000E+00    0.101339E+01
   -0.000000E+00    0.000000E+00    0.149593E+00
   -0.000000E+00    0.000000E+00    0.282791E+00
   -0.000000E+00    0.000000E+00    0.558386E+00
   -0.000000E+00    0.000000E+00    0.104482E+01
   -0.000000E+00    0.000000E+00    0.172206E+01
   -0.000000E+00    0.000000E+00    0.186124E+01
   -0.000000E+00    0.000000E+00    0.979975E+00
   -0.000000E+00    0.000000E+00    0.522859E+00
SCALARS h float 1
LOOKUP_TABLE default
    0.100000E-19    0.100000E-19    0.100000E-19    0.100000E-19    0.100000E-19    0.100000E-19    0.100000E-19    0.100000E-19    0.100000E-19    0.100000E-19    0.100000E-19    0.100000E-19    0.100000E-19    0.100000E-19    0.100000E-19    0.100000E-19    0.100000E-19    0.100000E-19    0.100000E-19    0.100000E-19    0.100000E-19    0.100000E-19    0.100000E-19    0.100000E-19    0.100000E-19    0.100000E-19    0.100000E-19    0.100000E-19    0.100000E-19    0.100000E-19    0.100000E-19    0.100000E-19
SCALARS head float 1
LOOKUP_TABLE default
    0.466983E+01    0.462965E+01    0.456403E+01    0.449215E+01    0.443325E+01    0.440339E+01    0.440654E+01    0.441791E+01    0.470973E+01    0.465449E+01    0.456936E+01    0.447800E+01    0.440300E+01    0.436916E+01    0.439724E+01    0.442840E+01    0.480638E+01    0.471038E+01    0.458162E+01    0.444758E+01    0.433107E+01    0.427214E+01    0.438479E+01    0.447068E+01    0.500000E+01    0.480000E+01    0.460000E+01    0.440000E+01    0.420000E+01    0.400000E+01    0.440000E+01    0.460000E+01
SCALARS pres float 1
LOOKUP_TABLE default
    0.140863E+00    0.140470E+00    0.139827E+00    0.139122E+00    0.138545E+00    0.138252E+00    0.138283E+00    0.138395E+00    0.131458E+00    0.130917E+00    0.130082E+00    0.129186E+00    0.128450E+00    0.128118E+00    0.128394E+00    0.128700E+00    0.122606E+00    0.121665E+00    0.120402E+00    0.119088E+00    0.117946E+00    0.117368E+00    0.118473E+00    0.119315E+00    0.114702E+00    0.112742E+00    0.110782E+00    0.108821E+00    0.106861E+00    0.104901E+00    0.108821E+00    0.110782E+00
SCALARS kx float 1
LOOKUP_TABLE default
   -0.120000E+02   -0.120000E+02   -0.120000E+02   -0.120000E+02   -0.120000E+02   -0.120000E+02   -0.120000E+02   -0.120000E+02   -0.120000E+02   -0.120000E+02   -0.120000E+02   -0.120000E+02   -0.120000E+02   -0.120000E+02   -0.120000E+02   -0.120000E+02   -0.120000E+02   -0.120000E+02   -0.120000E+02   -0.120000E+02   -0.120000E+02   -0.120000E+02   -0.120000E+02   -0.120000E+02   -0.120000E+02   -0.120000E+02   -0.120000E+02   -0.120000E+02   -0.120000E+02   -0.120000E+02   -0.120000E+02   -0.120000E+02
SCALARS ky float 1
LOOKUP_TABLE default
   -0.120000E+02   -0.120000E+02   -0.120000E+02   -0.120000E+02   -0.120000E+02   -0.120000E+02   -0.120000E+02   -0.120000E+02   -0.120000E+02   -0.120000E+02   -0.120000E+02   -0.120000E+02   -0.120000E+02   -0.120000E+02   -0.120000E+02   -0.120000E+02   -0.120000E+02   -0.120000E+02   -0.120000E+02   -0.120000E+02   -0.120000E+02   -0.120000E+02   -0.120000E+02   -0.120000E+02   -0.120000E+02   -0.120000E+02   -0.120000E+02   -0.120000E+02   -0.120000E+02   -0.120000E+02   -0.120000E+02   -0.120000E+02
SCALARS kz float 1
LOOKUP_TABLE default
   -0.120000E+02   -0.120000E+02   -0.120000E+02   -0.120000E+02   -0.120000E+02   -0.120000E+02   -0.120000E+02   -0.120000E+02   -0.120000E+02   -0.120000E+02   -0.120000E+02   -0.120000E+02   -0.120000E+02   -0.120000E+02   -0.120000E+02   -0.120000E+02   -0.120000E+02   -0.120000E+02   -0.120000E+02   -0.120000E+02   -0.120000E+02   -0.120000E+02   -0.120000E+02   -0.120000E+02   -0.120000E+02   -0.120000E+02   -0.120000E+02   -0.120000E+02   -0.120000E+02   -0.120000E+02   -0.120000E+02   -0.120000E+02
SCALARS rhof float 1
LOOKUP_TABLE default
    0.998982E+03    0.998981E+03    0.998981E+03    0.998981E+03    0.998980E+03    0.998980E+03    0.998980E+03    0.998980E+03    0.999097E+03    0.999087E+03    0.999070E+03    0.999047E+03    0.999025E+03    0.999019E+03    0.999042E+03    0.999062E+03    0.999132E+03    0.999126E+03    0.999115E+03    0.999096E+03    0.999068E+03    0.999062E+03    0.999098E+03    0.999116E+03    0.999132E+03    0.999131E+03    0.999130E+03    0.999129E+03    0.999127E+03    0.999126E+03    0.999129E+03    0.999130E+03
VECTORS v float
    0.320719E-06    0.000000E+00   -0.320719E-06
    0.422248E-06    0.000000E+00   -0.203059E-06
    0.548787E-06    0.000000E+00   -0.500196E-07
    0.521944E-06    0.000000E+00    0.103706E-06
    0.354224E-06    0.000000E+00    0.231733E-06
    0.106596E-06    0.000000E+00    0.263523E-06
   -0.579335E-07    0.000000E+00    0.655368E-07
   -0.907019E-07    0.000000E+00   -0.907019E-07
    0.425479E-06    0.000000E+00   -0.533458E-06
    0.542075E-06    0.000000E+00   -0.319655E-06
    0.684993E-06    0.000000E+00   -0.763415E-07
    0.649599E-06    0.000000E+00    0.165423E-06
    0.427146E-06    0.000000E+00    0.392469E-06
    0.229667E-07    0.000000E+00    0.506966E-06
   -0.231771E-06    0.000000E+00    0.768312E-07
   -0.243066E-06    0.000000E+00   -0.212235E-06
    0.728115E-06    0.000000E+00   -0.111026E-05
    0.853786E-06    0.000000E+00   -0.561922E-06
    0.100217E-05    0.000000E+00   -0.125379E-06
    0.961489E-06    0.000000E+00    0.290539E-06
    0.677440E-06    0.000000E+00    0.773854E-06
   -0.205971E-06    0.000000E+00    0.141317E-05
   -0.762513E-06    0.000000E+00   -0.180959E-07
   -0.656291E-06    0.000000E+00   -0.661913E-06
    0.151244E-05    0.000000E+00   -0.147431E-05
    0.151244E-05    0.000000E+00   -0.687592E-06
    0.151244E-05    0.000000E+00   -0.148095E-06
    0.151244E-05    0.000000E+00    0.353938E-06
    0.151244E-05    0.000000E+00    0.994503E-06
   -0.756219E-06    0.000000E+00    0.207594E-05
   -0.226866E-05    0.000000E+00   -0.124317E-06
   -0.151244E-05    0.000000E+00   -0.990059E-06
