# vtk DataFile Version 2.0
salt_small_final                                                                                                                                                                                                                                                
ASCII
DATASET RECTILINEAR_GRID
DIMENSIONS       10      1     10
X_COORDINATES       10 float
    0.500000E+00    0.150000E+01    0.250000E+01    0.350000E+01    0.450000E+01    0.550000E+01    0.650000E+01    0.750000E+01    0.850000E+01    0.950000E+01
Y_COORDINATES        1 float
    0.500000E+00
Z_COORDINATES       10 float
    0.500000E+00    0.150000E+01    0.250000E+01    0.350000E+01    0.450000E+01    0.550000E+01    0.650000E+01    0.750000E+01    0.850000E+01    0.950000E+01

POINT_DATA     100
SCALARS uindex int 1
LOOKUP_TABLE default
         1         1         1         1         1         1         1         1         1         1         1         1         1         1         1         1         1         1         1         1         1         1         1         1         1
         1         1         1         1         1         1         1         1         1         1         1         1         1         1         1         1         1         1         1         1         1         1         1         1         1
         1         1         1         1         1         1         1         1         1         1         1         1         1         1         1         1         1         1         1         1         1         1         1         1         1
         1         1         1         1         1         1         1         1         1         1         1         1         1         1         1         1         1         1         1         1         1         1         1         1         1
SCALARS por float 1
LOOKUP_TABLE default
    0.350000E+00    0.350000E+00    0.350000E+00    0.350000E+00    0.350000E+00    0.350000E+00    0.350000E+00    0.350000E+00    0.350000E+00    0.350000E+00
    0.350000E+00    0.350000E+00    0.350000E+00    0.350000E+00    0.350000E+00    0.350000E+00    0.350000E+00    0.350000E+00    0.350000E+00    0.350000E+00
    0.350000E+00    0.350000E+00    0.350000E+00    0.350000E+00    0.350000E+00    0.350000E+00    0.350000E+00    0.350000E+00    0.350000E+00    0.350000E+00
    0.350000E+00    0.350000E+00    0.350000E+00    0.350000E+00    0.350000E+00    0.350000E+00    0.350000E+00    0.350000E+00    0.350000E+00    0.350000E+00
    0.350000E+00    0.350000E+00    0.350000E+00    0.350000E+00    0.350000E+00    0.350000E+00    0.350000E+00    0.350000E+00    0.350000E+00    0.350000E+00
    0.350000E+00    0.350000E+00    0.350000E+00    0.350000E+00    0.350000E+00    0.350000E+00    0.350000E+00    0.350000E+00    0.350000E+00    0.350000E+00
    0.350000E+00    0.350000E+00    0.350000E+00    0.350000E+00    0.350000E+00    0.350000E+00    0.350000E+00    0.350000E+00    0.350000E+00    0.350000E+00
    0.350000E+00    0.350000E+00    0.350000E+00    0.350000E+00    0.350000E+00    0.350000E+00    0.350000E+00    0.350000E+00    0.350000E+00    0.350000E+00
    0.350000E+00    0.350000E+00    0.350000E+00    0.350000E+00    0.350000E+00    0.350000E+00    0.350000E+00    0.350000E+00    0.350000E+00    0.350000E+00
    0.350000E+00    0.350000E+00    0.350000E+00    0.350000E+00    0.350000E+00    0.350000E+00    0.350000E+00    0.350000E+00    0.350000E+00    0.350000E+00
SCALARS head float 1
LOOKUP_TABLE default
    0.400125E+02    0.400126E+02    0.400129E+02    0.400132E+02    0.400133E+02    0.400133E+02    0.400132E+02    0.400129E+02    0.400126E+02    0.400125E+02
    0.400107E+02    0.400108E+02    0.400110E+02    0.400113E+02    0.400114E+02    0.400114E+02    0.400113E+02    0.400110E+02    0.400108E+02    0.400107E+02
    0.400084E+02    0.400086E+02    0.400088E+02    0.400090E+02    0.400091E+02    0.400091E+02    0.400090E+02    0.400088E+02    0.400086E+02    0.400084E+02
    0.400057E+02    0.400058E+02    0.400059E+02    0.400061E+02    0.400062E+02    0.400062E+02    0.400061E+02    0.400059E+02    0.400058E+02    0.400057E+02
    0.400023E+02    0.400024E+02    0.400025E+02    0.400026E+02    0.400026E+02    0.400026E+02    0.400026E+02    0.400025E+02    0.400024E+02    0.400023E+02
    0.399986E+02    0.399986E+02    0.399986E+02    0.399986E+02    0.399986E+02    0.399986E+02    0.399986E+02    0.399986E+02    0.399986E+02    0.399986E+02
    0.399950E+02    0.399949E+02    0.399947E+02    0.399946E+02    0.399945E+02    0.399945E+02    0.399946E+02    0.399947E+02    0.399949E+02    0.399950E+02
    0.399916E+02    0.399915E+02    0.399913E+02    0.399911E+02    0.399909E+02    0.399909E+02    0.399911E+02    0.399913E+02    0.399915E+02    0.399916E+02
    0.399888E+02    0.399887E+02    0.399884E+02    0.399881E+02    0.399880E+02    0.399880E+02    0.399881E+02    0.399884E+02    0.399887E+02    0.399888E+02
    0.399865E+02    0.399863E+02    0.399859E+02    0.399856E+02    0.399854E+02    0.399854E+02    0.399856E+02    0.399859E+02    0.399863E+02    0.399865E+02
SCALARS pres float 1
LOOKUP_TABLE default
    0.487365E+00    0.487396E+00    0.487444E+00    0.487492E+00    0.487520E+00    0.487520E+00    0.487492E+00    0.487444E+00    0.487396E+00    0.487365E+00
    0.477620E+00    0.477661E+00    0.477725E+00    0.477788E+00    0.477826E+00    0.477826E+00    0.477788E+00    0.477725E+00    0.477661E+00    0.477620E+00
    0.467930E+00    0.467991E+00    0.468087E+00    0.468180E+00    0.468235E+00    0.468235E+00    0.468180E+00    0.468087E+00    0.467991E+00    0.467930E+00
    0.458261E+00    0.458348E+00    0.458486E+00    0.458617E+00    0.458694E+00    0.458694E+00    0.458617E+00    0.458486E+00    0.458348E+00    0.458261E+00
    0.448558E+00    0.448668E+00    0.448843E+00    0.449006E+00    0.449101E+00    0.449101E+00    0.449006E+00    0.448843E+00    0.448668E+00    0.448558E+00
    0.438763E+00    0.438880E+00    0.439063E+00    0.439233E+00    0.439331E+00    0.439331E+00    0.439233E+00    0.439063E+00    0.438880E+00    0.438763E+00
    0.428858E+00    0.428955E+00    0.429107E+00    0.429249E+00    0.429331E+00    0.429331E+00    0.429249E+00    0.429107E+00    0.428955E+00    0.428858E+00
    0.418892E+00    0.418960E+00    0.419067E+00    0.419167E+00    0.419226E+00    0.419226E+00    0.419167E+00    0.419067E+00    0.418960E+00    0.418892E+00
    0.408934E+00    0.408978E+00    0.409048E+00    0.409115E+00    0.409155E+00    0.409155E+00    0.409115E+00    0.409048E+00    0.408978E+00    0.408934E+00
    0.399032E+00    0.399064E+00    0.399114E+00    0.399162E+00    0.399191E+00    0.399191E+00    0.399162E+00    0.399114E+00    0.399064E+00    0.399032E+00
SCALARS kx float 1
LOOKUP_TABLE default
   -0.110000E+02   -0.110000E+02   -0.110000E+02   -0.110000E+02   -0.110000E+02   -0.110000E+02   -0.110000E+02   -0.110000E+02   -0.110000E+02   -0.110000E+02
   -0.110000E+02   -0.110000E+02   -0.110000E+02   -0.110000E+02   -0.110000E+02   -0.110000E+02   -0.110000E+02   -0.110000E+02   -0.110000E+02   -0.110000E+02
   -0.110000E+02   -0.110000E+02   -0.110000E+02   -0.110000E+02   -0.110000E+02   -0.110000E+02   -0.110000E+02   -0.110000E+02   -0.110000E+02   -0.110000E+02
   -0.110000E+02   -0.110000E+02   -0.110000E+02   -0.110000E+02   -0.110000E+02   -0.110000E+02   -0.110000E+02   -0.110000E+02   -0.110000E+02   -0.110000E+02
   -0.110000E+02   -0.110000E+02   -0.110000E+02   -0.110000E+02   -0.110000E+02   -0.110000E+02   -0.110000E+02   -0.110000E+02   -0.110000E+02   -0.110000E+02
   -0.110000E+02   -0.110000E+02   -0.110000E+02   -0.110000E+02   -0.110000E+02   -0.110000E+02   -0.110000E+02   -0.110000E+02   -0.110000E+02   -0.110000E+02
   -0.110000E+02   -0.110000E+02   -0.110000E+02   -0.110000E+02   -0.110000E+02   -0.110000E+02   -0.110000E+02   -0.110000E+02   -0.110000E+02   -0.110000E+02
   -0.110000E+02   -0.110000E+02   -0.110000E+02   -0.110000E+02   -0.110000E+02   -0.110000E+02   -0.110000E+02   -0.110000E+02   -0.110000E+02   -0.110000E+02
   -0.110000E+02   -0.110000E+02   -0.110000E+02   -0.110000E+02   -0.110000E+02   -0.110000E+02   -0.110000E+02   -0.110000E+02   -0.110000E+02   -0.110000E+02
   -0.110000E+02   -0.110000E+02   -0.110000E+02   -0.110000E+02   -0.110000E+02   -0.110000E+02   -0.110000E+02   -0.110000E+02   -0.110000E+02   -0.110000E+02
SCALARS ky float 1
LOOKUP_TABLE default
   -0.110000E+02   -0.110000E+02   -0.110000E+02   -0.110000E+02   -0.110000E+02   -0.110000E+02   -0.110000E+02   -0.110000E+02   -0.110000E+02   -0.110000E+02
   -0.110000E+02   -0.110000E+02   -0.110000E+02   -0.110000E+02   -0.110000E+02   -0.110000E+02   -0.110000E+02   -0.110000E+02   -0.110000E+02   -0.110000E+02
   -0.110000E+02   -0.110000E+02   -0.110000E+02   -0.110000E+02   -0.110000E+02   -0.110000E+02   -0.110000E+02   -0.110000E+02   -0.110000E+02   -0.110000E+02
   -0.110000E+02   -0.110000E+02   -0.110000E+02   -0.110000E+02   -0.110000E+02   -0.110000E+02   -0.110000E+02   -0.110000E+02   -0.110000E+02   -0.110000E+02
   -0.110000E+02   -0.110000E+02   -0.110000E+02   -0.110000E+02   -0.110000E+02   -0.110000E+02   -0.110000E+02   -0.110000E+02   -0.110000E+02   -0.110000E+02
   -0.110000E+02   -0.110000E+02   -0.110000E+02   -0.110000E+02   -0.110000E+02   -0.110000E+02   -0.110000E+02   -0.110000E+02   -0.110000E+02   -0.110000E+02
   -0.110000E+02   -0.110000E+02   -0.110000E+02   -0.110000E+02   -0.110000E+02   -0.110000E+02   -0.110000E+02   -0.110000E+02   -0.110000E+02   -0.110000E+02
   -0.110000E+02   -0.110000E+02   -0.110000E+02   -0.110000E+02   -0.110000E+02   -0.110000E+02   -0.110000E+02   -0.110000E+02   -0.110000E+02   -0.110000E+02
   -0.110000E+02   -0.110000E+02   -0.110000E+02   -0.110000E+02   -0.110000E+02   -0.110000E+02   -0.110000E+02   -0.110000E+02   -0.110000E+02   -0.110000E+02
   -0.110000E+02   -0.110000E+02   -0.110000E+02   -0.110000E+02   -0.110000E+02   -0.110000E+02   -0.110000E+02   -0.110000E+02   -0.110000E+02   -0.110000E+02
SCALARS kz float 1
LOOKUP_TABLE default
   -0.110000E+02   -0.110000E+02   -0.110000E+02   -0.110000E+02   -0.110000E+02   -0.110000E+02   -0.110000E+02   -0.110000E+02   -0.110000E+02   -0.110000E+02
   -0.110000E+02   -0.110000E+02   -0.110000E+02   -0.110000E+02   -0.110000E+02   -0.110000E+02   -0.110000E+02   -0.110000E+02   -0.110000E+02   -0.110000E+02
   -0.110000E+02   -0.110000E+02   -0.110000E+02   -0.110000E+02   -0.110000E+02   -0.110000E+02   -0.110000E+02   -0.110000E+02   -0.110000E+02   -0.110000E+02
   -0.110000E+02   -0.110000E+02   -0.110000E+02   -0.110000E+02   -0.110000E+02   -0.110000E+02   -0.110000E+02   -0.110000E+02   -0.110000E+02   -0.110000E+02
   -0.110000E+02   -0.110000E+02   -0.110000E+02   -0.110000E+02   -0.110000E+02   -0.110000E+02   -0.110000E+02   -0.110000E+02   -0.110000E+02   -0.110000E+02
   -0.110000E+02   -0.110000E+02   -0.110000E+02   -0.110000E+02   -0.110000E+02   -0.110000E+02   -0.110000E+02   -0.110000E+02   -0.110000E+02   -0.110000E+02
   -0.110000E+02   -0.110000E+02   -0.110000E+02   -0.110000E+02   -0.110000E+02   -0.110000E+02   -0.110000E+02   -0.110000E+02   -0.110000E+02   -0.110000E+02
   -0.110000E+02   -0.110000E+02   -0.110000E+02   -0.110000E+02   -0.110000E+02   -0.110000E+02   -0.110000E+02   -0.110000E+02   -0.110000E+02   -0.110000E+02
   -0.110000E+02   -0.110000E+02   -0.110000E+02   -0.110000E+02   -0.110000E+02   -0.110000E+02   -0.110000E+02   -0.110000E+02   -0.110000E+02   -0.110000E+02
   -0.110000E+02   -0.110000E+02   -0.110000E+02   -0.110000E+02   -0.110000E+02   -0.110000E+02   -0.110000E+02   -0.110000E+02   -0.110000E+02   -0.110000E+02
SCALARS rhof float 1
LOOKUP_TABLE default
    0.999527E+03    0.999601E+03    0.999720E+03    0.999835E+03    0.999905E+03    0.999905E+03    0.999835E+03    0.999720E+03    0.999601E+03    0.999527E+03
    0.999724E+03    0.999828E+03    0.999992E+03    0.100015E+04    0.100025E+04    0.100025E+04    0.100015E+04    0.999992E+03    0.999828E+03    0.999724E+03
    0.100009E+04    0.100026E+04    0.100051E+04    0.100076E+04    0.100090E+04    0.100090E+04    0.100076E+04    0.100051E+04    0.100026E+04    0.100009E+04
    0.100056E+04    0.100080E+04    0.100118E+04    0.100154E+04    0.100175E+04    0.100175E+04    0.100154E+04    0.100118E+04    0.100080E+04    0.100056E+04
    0.100096E+04    0.100128E+04    0.100178E+04    0.100224E+04    0.100252E+04    0.100252E+04    0.100224E+04    0.100178E+04    0.100128E+04    0.100096E+04
    0.100113E+04    0.100148E+04    0.100202E+04    0.100252E+04    0.100281E+04    0.100281E+04    0.100252E+04    0.100202E+04    0.100148E+04    0.100113E+04
    0.100098E+04    0.100128E+04    0.100174E+04    0.100218E+04    0.100243E+04    0.100243E+04    0.100218E+04    0.100174E+04    0.100128E+04    0.100098E+04
    0.100061E+04    0.100083E+04    0.100117E+04    0.100149E+04    0.100168E+04    0.100168E+04    0.100149E+04    0.100117E+04    0.100083E+04    0.100061E+04
    0.100023E+04    0.100038E+04    0.100062E+04    0.100084E+04    0.100098E+04    0.100098E+04    0.100084E+04    0.100062E+04    0.100038E+04    0.100023E+04
    0.100000E+04    0.100011E+04    0.100029E+04    0.100046E+04    0.100057E+04    0.100057E+04    0.100046E+04    0.100029E+04    0.100011E+04    0.100000E+04
SCALARS tracer1 float 1
LOOKUP_TABLE default
    0.246576E-01    0.265538E-01    0.295745E-01    0.325243E-01    0.343090E-01    0.343090E-01    0.325243E-01    0.295745E-01    0.265538E-01    0.246576E-01
    0.298037E-01    0.324453E-01    0.366478E-01    0.407307E-01    0.431877E-01    0.431877E-01    0.407307E-01    0.366478E-01    0.324453E-01    0.298037E-01
    0.393445E-01    0.434670E-01    0.500074E-01    0.563017E-01    0.600542E-01    0.600542E-01    0.563017E-01    0.500074E-01    0.434670E-01    0.393445E-01
    0.512530E-01    0.574019E-01    0.671247E-01    0.763616E-01    0.818013E-01    0.818013E-01    0.763616E-01    0.671247E-01    0.574019E-01    0.512530E-01
    0.617756E-01    0.698609E-01    0.826100E-01    0.945464E-01    0.101484E+00    0.101484E+00    0.945464E-01    0.826100E-01    0.698609E-01    0.617756E-01
    0.662900E-01    0.751087E-01    0.889910E-01    0.101851E+00    0.109261E+00    0.109261E+00    0.101851E+00    0.889910E-01    0.751087E-01    0.662900E-01
    0.624471E-01    0.700566E-01    0.820002E-01    0.931284E-01    0.995769E-01    0.995769E-01    0.931284E-01    0.820002E-01    0.700566E-01    0.624471E-01
    0.531895E-01    0.587453E-01    0.674703E-01    0.757027E-01    0.805312E-01    0.805312E-01    0.757027E-01    0.674703E-01    0.587453E-01    0.531895E-01
    0.436190E-01    0.474193E-01    0.534161E-01    0.591607E-01    0.625779E-01    0.625779E-01    0.591607E-01    0.534161E-01    0.474193E-01    0.436190E-01
    0.378199E-01    0.406802E-01    0.452215E-01    0.496279E-01    0.522794E-01    0.522794E-01    0.496279E-01    0.452215E-01    0.406802E-01    0.378199E-01
VECTORS v float
   -0.162903E-07    0.000000E+00    0.162903E-07
   -0.212208E-07    0.000000E+00    0.986093E-08
   -0.260054E-07    0.000000E+00   -0.291744E-09
   -0.208432E-07    0.000000E+00   -0.100326E-07
   -0.791346E-08    0.000000E+00   -0.158269E-07
    0.791345E-08    0.000000E+00   -0.158269E-07
    0.208432E-07    0.000000E+00   -0.100326E-07
    0.260054E-07    0.000000E+00   -0.291746E-09
    0.212208E-07    0.000000E+00    0.986093E-08
    0.162903E-07    0.000000E+00    0.162903E-07
   -0.140603E-07    0.000000E+00    0.233205E-07
   -0.182963E-07    0.000000E+00    0.140969E-07
   -0.223688E-07    0.000000E+00   -0.455182E-09
   -0.178767E-07    0.000000E+00   -0.143612E-07
   -0.677406E-08    0.000000E+00   -0.226010E-07
    0.677406E-08    0.000000E+00   -0.226010E-07
    0.178767E-07    0.000000E+00   -0.143612E-07
    0.223688E-07    0.000000E+00   -0.455185E-09
    0.182963E-07    0.000000E+00    0.140969E-07
    0.140603E-07    0.000000E+00    0.233205E-07
   -0.131879E-07    0.000000E+00    0.369446E-07
   -0.171147E-07    0.000000E+00    0.222596E-07
   -0.208025E-07    0.000000E+00   -0.857561E-09
   -0.165079E-07    0.000000E+00   -0.227455E-07
   -0.622613E-08    0.000000E+00   -0.356011E-07
    0.622613E-08    0.000000E+00   -0.356011E-07
    0.165079E-07    0.000000E+00   -0.227455E-07
    0.208025E-07    0.000000E+00   -0.857565E-09
    0.171147E-07    0.000000E+00    0.222596E-07
    0.131879E-07    0.000000E+00    0.369446E-07
   -0.110238E-07    0.000000E+00    0.490505E-07
   -0.142586E-07    0.000000E+00    0.294211E-07
   -0.171972E-07    0.000000E+00   -0.139274E-08
   -0.135157E-07    0.000000E+00   -0.301863E-07
   -0.506528E-08    0.000000E+00   -0.468925E-07
    0.506528E-08    0.000000E+00   -0.468925E-07
    0.135157E-07    0.000000E+00   -0.301863E-07
    0.171972E-07    0.000000E+00   -0.139275E-08
    0.142586E-07    0.000000E+00    0.294211E-07
    0.110238E-07    0.000000E+00    0.490505E-07
   -0.597045E-08    0.000000E+00    0.575477E-07
   -0.768852E-08    0.000000E+00    0.343740E-07
   -0.917394E-08    0.000000E+00   -0.192164E-08
   -0.711315E-08    0.000000E+00   -0.353996E-07
   -0.264250E-08    0.000000E+00   -0.546003E-07
    0.264250E-08    0.000000E+00   -0.546003E-07
    0.711315E-08    0.000000E+00   -0.353996E-07
    0.917394E-08    0.000000E+00   -0.192164E-08
    0.768852E-08    0.000000E+00    0.343740E-07
    0.597045E-08    0.000000E+00    0.575477E-07
    0.153758E-08    0.000000E+00    0.597641E-07
    0.201999E-08    0.000000E+00    0.356097E-07
    0.250108E-08    0.000000E+00   -0.215297E-08
    0.201835E-08    0.000000E+00   -0.367463E-07
    0.768466E-09    0.000000E+00   -0.564743E-07
   -0.768464E-09    0.000000E+00   -0.564743E-07
   -0.201835E-08    0.000000E+00   -0.367463E-07
   -0.250108E-08    0.000000E+00   -0.215298E-08
   -0.201999E-08    0.000000E+00    0.356097E-07
   -0.153758E-08    0.000000E+00    0.597641E-07
    0.871744E-08    0.000000E+00    0.546366E-07
    0.112917E-07    0.000000E+00    0.325530E-07
    0.136306E-07    0.000000E+00   -0.191638E-08
    0.107112E-07    0.000000E+00   -0.335807E-07
    0.401350E-08    0.000000E+00   -0.516924E-07
   -0.401349E-08    0.000000E+00   -0.516924E-07
   -0.107112E-07    0.000000E+00   -0.335807E-07
   -0.136306E-07    0.000000E+00   -0.191638E-08
   -0.112917E-07    0.000000E+00    0.325530E-07
   -0.871744E-08    0.000000E+00    0.546366E-07
    0.133471E-07    0.000000E+00    0.436044E-07
    0.172912E-07    0.000000E+00    0.260346E-07
    0.209312E-07    0.000000E+00   -0.137690E-08
    0.165267E-07    0.000000E+00   -0.267962E-07
    0.621320E-08    0.000000E+00   -0.414657E-07
   -0.621320E-08    0.000000E+00   -0.414657E-07
   -0.165267E-07    0.000000E+00   -0.267962E-07
   -0.209312E-07    0.000000E+00   -0.137691E-08
   -0.172912E-07    0.000000E+00    0.260346E-07
   -0.133471E-07    0.000000E+00    0.436044E-07
    0.162688E-07    0.000000E+00    0.287964E-07
    0.211184E-07    0.000000E+00    0.172408E-07
    0.256997E-07    0.000000E+00   -0.804349E-09
    0.204336E-07    0.000000E+00   -0.176983E-07
    0.771796E-08    0.000000E+00   -0.275346E-07
   -0.771796E-08    0.000000E+00   -0.275346E-07
   -0.204336E-07    0.000000E+00   -0.176983E-07
   -0.256997E-07    0.000000E+00   -0.804351E-09
   -0.211184E-07    0.000000E+00    0.172408E-07
   -0.162688E-07    0.000000E+00    0.287964E-07
    0.206620E-07    0.000000E+00    0.206620E-07
    0.268576E-07    0.000000E+00    0.123912E-07
    0.327852E-07    0.000000E+00   -0.535991E-09
    0.261669E-07    0.000000E+00   -0.127006E-07
    0.990831E-08    0.000000E+00   -0.198166E-07
   -0.990831E-08    0.000000E+00   -0.198166E-07
   -0.261669E-07    0.000000E+00   -0.127006E-07
   -0.327852E-07    0.000000E+00   -0.535992E-09
   -0.268576E-07    0.000000E+00    0.123912E-07
   -0.206620E-07    0.000000E+00    0.206620E-07
