# vtk DataFile Version 2.0
Peclet_down_final                                                                                                                                                                                                                                               
ASCII
DATASET RECTILINEAR_GRID
DIMENSIONS        3      1    200
X_COORDINATES        3 float
    0.500000E+00    0.150000E+01    0.250000E+01
Y_COORDINATES        1 float
    0.500000E+00
Z_COORDINATES      200 float
    0.250000E+01    0.750000E+01    0.125000E+02    0.175000E+02    0.225000E+02    0.275000E+02    0.325000E+02    0.375000E+02    0.425000E+02    0.475000E+02
    0.525000E+02    0.575000E+02    0.625000E+02    0.675000E+02    0.725000E+02    0.775000E+02    0.825000E+02    0.875000E+02    0.925000E+02    0.975000E+02
    0.102500E+03    0.107500E+03    0.112500E+03    0.117500E+03    0.122500E+03    0.127500E+03    0.132500E+03    0.137500E+03    0.142500E+03    0.147500E+03
    0.152500E+03    0.157500E+03    0.162500E+03    0.167500E+03    0.172500E+03    0.177500E+03    0.182500E+03    0.187500E+03    0.192500E+03    0.197500E+03
    0.202500E+03    0.207500E+03    0.212500E+03    0.217500E+03    0.222500E+03    0.227500E+03    0.232500E+03    0.237500E+03    0.242500E+03    0.247500E+03
    0.252500E+03    0.257500E+03    0.262500E+03    0.267500E+03    0.272500E+03    0.277500E+03    0.282500E+03    0.287500E+03    0.292500E+03    0.297500E+03
    0.302500E+03    0.307500E+03    0.312500E+03    0.317500E+03    0.322500E+03    0.327500E+03    0.332500E+03    0.337500E+03    0.342500E+03    0.347500E+03
    0.352500E+03    0.357500E+03    0.362500E+03    0.367500E+03    0.372500E+03    0.377500E+03    0.382500E+03    0.387500E+03    0.392500E+03    0.397500E+03
    0.402500E+03    0.407500E+03    0.412500E+03    0.417500E+03    0.422500E+03    0.427500E+03    0.432500E+03    0.437500E+03    0.442500E+03    0.447500E+03
    0.452500E+03    0.457500E+03    0.462500E+03    0.467500E+03    0.472500E+03    0.477500E+03    0.482500E+03    0.487500E+03    0.492500E+03    0.497500E+03
    0.502500E+03    0.507500E+03    0.512500E+03    0.517500E+03    0.522500E+03    0.527500E+03    0.532500E+03    0.537500E+03    0.542500E+03    0.547500E+03
    0.552500E+03    0.557500E+03    0.562500E+03    0.567500E+03    0.572500E+03    0.577500E+03    0.582500E+03    0.587500E+03    0.592500E+03    0.597500E+03
    0.602500E+03    0.607500E+03    0.612500E+03    0.617500E+03    0.622500E+03    0.627500E+03    0.632500E+03    0.637500E+03    0.642500E+03    0.647500E+03
    0.652500E+03    0.657500E+03    0.662500E+03    0.667500E+03    0.672500E+03    0.677500E+03    0.682500E+03    0.687500E+03    0.692500E+03    0.697500E+03
    0.702500E+03    0.707500E+03    0.712500E+03    0.717500E+03    0.722500E+03    0.727500E+03    0.732500E+03    0.737500E+03    0.742500E+03    0.747500E+03
    0.752500E+03    0.757500E+03    0.762500E+03    0.767500E+03    0.772500E+03    0.777500E+03    0.782500E+03    0.787500E+03    0.792500E+03    0.797500E+03
    0.802500E+03    0.807500E+03    0.812500E+03    0.817500E+03    0.822500E+03    0.827500E+03    0.832500E+03    0.837500E+03    0.842500E+03    0.847500E+03
    0.852500E+03    0.857500E+03    0.862500E+03    0.867500E+03    0.872500E+03    0.877500E+03    0.882500E+03    0.887500E+03    0.892500E+03    0.897500E+03
    0.902500E+03    0.907500E+03    0.912500E+03    0.917500E+03    0.922500E+03    0.927500E+03    0.932500E+03    0.937500E+03    0.942500E+03    0.947500E+03
    0.952500E+03    0.957500E+03    0.962500E+03    0.967500E+03    0.972500E+03    0.977500E+03    0.982500E+03    0.987500E+03    0.992500E+03    0.997500E+03

POINT_DATA     600
SCALARS uindex int 1
LOOKUP_TABLE default
         1         1         1         1         1         1         1         1         1         1         1         1         1         1         1         1         1         1         1         1         1         1         1         1         1
         1         1         1         1         1         1         1         1         1         1         1         1         1         1         1         1         1         1         1         1         1         1         1         1         1
         1         1         1         1         1         1         1         1         1         1         1         1         1         1         1         1         1         1         1         1         1         1         1         1         1
         1         1         1         1         1         1         1         1         1         1         1         1         1         1         1         1         1         1         1         1         1         1         1         1         1
         1         1         1         1         1         1         1         1         1         1         1         1         1         1         1         1         1         1         1         1         1         1         1         1         1
         1         1         1         1         1         1         1         1         1         1         1         1         1         1         1         1         1         1         1         1         1         1         1         1         1
         1         1         1         1         1         1         1         1         1         1         1         1         1         1         1         1         1         1         1         1         1         1         1         1         1
         1         1         1         1         1         1         1         1         1         1         1         1         1         1         1         1         1         1         1         1         1         1         1         1         1
         1         1         1         1         1         1         1         1         1         1         1         1         1         1         1         1         1         1         1         1         1         1         1         1         1
         1         1         1         1         1         1         1         1         1         1         1         1         1         1         1         1         1         1         1         1         1         1         1         1         1
         1         1         1         1         1         1         1         1         1         1         1         1         1         1         1         1         1         1         1         1         1         1         1         1         1
         1         1         1         1         1         1         1         1         1         1         1         1         1         1         1         1         1         1         1         1         1         1         1         1         1
         1         1         1         1         1         1         1         1         1         1         1         1         1         1         1         1         1         1         1         1         1         1         1         1         1
         1         1         1         1         1         1         1         1         1         1         1         1         1         1         1         1         1         1         1         1         1         1         1         1         1
         1         1         1         1         1         1         1         1         1         1         1         1         1         1         1         1         1         1         1         1         1         1         1         1         1
         1         1         1         1         1         1         1         1         1         1         1         1         1         1         1         1         1         1         1         1         1         1         1         1         1
         1         1         1         1         1         1         1         1         1         1         1         1         1         1         1         1         1         1         1         1         1         1         1         1         1
         1         1         1         1         1         1         1         1         1         1         1         1         1         1         1         1         1         1         1         1         1         1         1         1         1
         1         1         1         1         1         1         1         1         1         1         1         1         1         1         1         1         1         1         1         1         1         1         1         1         1
         1         1         1         1         1         1         1         1         1         1         1         1         1         1         1         1         1         1         1         1         1         1         1         1         1
         1         1         1         1         1         1         1         1         1         1         1         1         1         1         1         1         1         1         1         1         1         1         1         1         1
         1         1         1         1         1         1         1         1         1         1         1         1         1         1         1         1         1         1         1         1         1         1         1         1         1
         1         1         1         1         1         1         1         1         1         1         1         1         1         1         1         1         1         1         1         1         1         1         1         1         1
         1         1         1         1         1         1         1         1         1         1         1         1         1         1         1         1         1         1         1         1         1         1         1         1         1
SCALARS por float 1
LOOKUP_TABLE default
    0.100000E-04    0.100000E-04    0.100000E-04    0.100000E-04    0.100000E-04    0.100000E-04    0.100000E-04    0.100000E-04    0.100000E-04    0.100000E-04
    0.100000E-04    0.100000E-04    0.100000E-04    0.100000E-04    0.100000E-04    0.100000E-04    0.100000E-04    0.100000E-04    0.100000E-04    0.100000E-04
    0.100000E-04    0.100000E-04    0.100000E-04    0.100000E-04    0.100000E-04    0.100000E-04    0.100000E-04    0.100000E-04    0.100000E-04    0.100000E-04
    0.100000E-04    0.100000E-04    0.100000E-04    0.100000E-04    0.100000E-04    0.100000E-04    0.100000E-04    0.100000E-04    0.100000E-04    0.100000E-04
    0.100000E-04    0.100000E-04    0.100000E-04    0.100000E-04    0.100000E-04    0.100000E-04    0.100000E-04    0.100000E-04    0.100000E-04    0.100000E-04
    0.100000E-04    0.100000E-04    0.100000E-04    0.100000E-04    0.100000E-04    0.100000E-04    0.100000E-04    0.100000E-04    0.100000E-04    0.100000E-04
    0.100000E-04    0.100000E-04    0.100000E-04    0.100000E-04    0.100000E-04    0.100000E-04    0.100000E-04    0.100000E-04    0.100000E-04    0.100000E-04
    0.100000E-04    0.100000E-04    0.100000E-04    0.100000E-04    0.100000E-04    0.100000E-04    0.100000E-04    0.100000E-04    0.100000E-04    0.100000E-04
    0.100000E-04    0.100000E-04    0.100000E-04    0.100000E-04    0.100000E-04    0.100000E-04    0.100000E-04    0.100000E-04    0.100000E-04    0.100000E-04
    0.100000E-04    0.100000E-04    0.100000E-04    0.100000E-04    0.100000E-04    0.100000E-04    0.100000E-04    0.100000E-04    0.100000E-04    0.100000E-04
    0.100000E-04    0.100000E-04    0.100000E-04    0.100000E-04    0.100000E-04    0.100000E-04    0.100000E-04    0.100000E-04    0.100000E-04    0.100000E-04
    0.100000E-04    0.100000E-04    0.100000E-04    0.100000E-04    0.100000E-04    0.100000E-04    0.100000E-04    0.100000E-04    0.100000E-04    0.100000E-04
    0.100000E-04    0.100000E-04    0.100000E-04    0.100000E-04    0.100000E-04    0.100000E-04    0.100000E-04    0.100000E-04    0.100000E-04    0.100000E-04
    0.100000E-04    0.100000E-04    0.100000E-04    0.100000E-04    0.100000E-04    0.100000E-04    0.100000E-04    0.100000E-04    0.100000E-04    0.100000E-04
    0.100000E-04    0.100000E-04    0.100000E-04    0.100000E-04    0.100000E-04    0.100000E-04    0.100000E-04    0.100000E-04    0.100000E-04    0.100000E-04
    0.100000E-04    0.100000E-04    0.100000E-04    0.100000E-04    0.100000E-04    0.100000E-04    0.100000E-04    0.100000E-04    0.100000E-04    0.100000E-04
    0.100000E-04    0.100000E-04    0.100000E-04    0.100000E-04    0.100000E-04    0.100000E-04    0.100000E-04    0.100000E-04    0.100000E-04    0.100000E-04
    0.100000E-04    0.100000E-04    0.100000E-04    0.100000E-04    0.100000E-04    0.100000E-04    0.100000E-04    0.100000E-04    0.100000E-04    0.100000E-04
    0.100000E-04    0.100000E-04    0.100000E-04    0.100000E-04    0.100000E-04    0.100000E-04    0.100000E-04    0.100000E-04    0.100000E-04    0.100000E-04
    0.100000E-04    0.100000E-04    0.100000E-04    0.100000E-04    0.100000E-04    0.100000E-04    0.100000E-04    0.100000E-04    0.100000E-04    0.100000E-04
    0.100000E-04    0.100000E-04    0.100000E-04    0.100000E-04    0.100000E-04    0.100000E-04    0.100000E-04    0.100000E-04    0.100000E-04    0.100000E-04
    0.100000E-04    0.100000E-04    0.100000E-04    0.100000E-04    0.100000E-04    0.100000E-04    0.100000E-04    0.100000E-04    0.100000E-04    0.100000E-04
    0.100000E-04    0.100000E-04    0.100000E-04    0.100000E-04    0.100000E-04    0.100000E-04    0.100000E-04    0.100000E-04    0.100000E-04    0.100000E-04
    0.100000E-04    0.100000E-04    0.100000E-04    0.100000E-04    0.100000E-04    0.100000E-04    0.100000E-04    0.100000E-04    0.100000E-04    0.100000E-04
    0.100000E-04    0.100000E-04    0.100000E-04    0.100000E-04    0.100000E-04    0.100000E-04    0.100000E-04    0.100000E-04    0.100000E-04    0.100000E-04
    0.100000E-04    0.100000E-04    0.100000E-04    0.100000E-04    0.100000E-04    0.100000E-04    0.100000E-04    0.100000E-04    0.100000E-04    0.100000E-04
    0.100000E-04    0.100000E-04    0.100000E-04    0.100000E-04    0.100000E-04    0.100000E-04    0.100000E-04    0.100000E-04    0.100000E-04    0.100000E-04
    0.100000E-04    0.100000E-04    0.100000E-04    0.100000E-04    0.100000E-04    0.100000E-04    0.100000E-04    0.100000E-04    0.100000E-04    0.100000E-04
    0.100000E-04    0.100000E-04    0.100000E-04    0.100000E-04    0.100000E-04    0.100000E-04    0.100000E-04    0.100000E-04    0.100000E-04    0.100000E-04
    0.100000E-04    0.100000E-04    0.100000E-04    0.100000E-04    0.100000E-04    0.100000E-04    0.100000E-04    0.100000E-04    0.100000E-04    0.100000E-04
    0.100000E-04    0.100000E-04    0.100000E-04    0.100000E-04    0.100000E-04    0.100000E-04    0.100000E-04    0.100000E-04    0.100000E-04    0.100000E-04
    0.100000E-04    0.100000E-04    0.100000E-04    0.100000E-04    0.100000E-04    0.100000E-04    0.100000E-04    0.100000E-04    0.100000E-04    0.100000E-04
    0.100000E-04    0.100000E-04    0.100000E-04    0.100000E-04    0.100000E-04    0.100000E-04    0.100000E-04    0.100000E-04    0.100000E-04    0.100000E-04
    0.100000E-04    0.100000E-04    0.100000E-04    0.100000E-04    0.100000E-04    0.100000E-04    0.100000E-04    0.100000E-04    0.100000E-04    0.100000E-04
    0.100000E-04    0.100000E-04    0.100000E-04    0.100000E-04    0.100000E-04    0.100000E-04    0.100000E-04    0.100000E-04    0.100000E-04    0.100000E-04
    0.100000E-04    0.100000E-04    0.100000E-04    0.100000E-04    0.100000E-04    0.100000E-04    0.100000E-04    0.100000E-04    0.100000E-04    0.100000E-04
    0.100000E-04    0.100000E-04    0.100000E-04    0.100000E-04    0.100000E-04    0.100000E-04    0.100000E-04    0.100000E-04    0.100000E-04    0.100000E-04
    0.100000E-04    0.100000E-04    0.100000E-04    0.100000E-04    0.100000E-04    0.100000E-04    0.100000E-04    0.100000E-04    0.100000E-04    0.100000E-04
    0.100000E-04    0.100000E-04    0.100000E-04    0.100000E-04    0.100000E-04    0.100000E-04    0.100000E-04    0.100000E-04    0.100000E-04    0.100000E-04
    0.100000E-04    0.100000E-04    0.100000E-04    0.100000E-04    0.100000E-04    0.100000E-04    0.100000E-04    0.100000E-04    0.100000E-04    0.100000E-04
    0.100000E-04    0.100000E-04    0.100000E-04    0.100000E-04    0.100000E-04    0.100000E-04    0.100000E-04    0.100000E-04    0.100000E-04    0.100000E-04
    0.100000E-04    0.100000E-04    0.100000E-04    0.100000E-04    0.100000E-04    0.100000E-04    0.100000E-04    0.100000E-04    0.100000E-04    0.100000E-04
    0.100000E-04    0.100000E-04    0.100000E-04    0.100000E-04    0.100000E-04    0.100000E-04    0.100000E-04    0.100000E-04    0.100000E-04    0.100000E-04
    0.100000E-04    0.100000E-04    0.100000E-04    0.100000E-04    0.100000E-04    0.100000E-04    0.100000E-04    0.100000E-04    0.100000E-04    0.100000E-04
    0.100000E-04    0.100000E-04    0.100000E-04    0.100000E-04    0.100000E-04    0.100000E-04    0.100000E-04    0.100000E-04    0.100000E-04    0.100000E-04
    0.100000E-04    0.100000E-04    0.100000E-04    0.100000E-04    0.100000E-04    0.100000E-04    0.100000E-04    0.100000E-04    0.100000E-04    0.100000E-04
    0.100000E-04    0.100000E-04    0.100000E-04    0.100000E-04    0.100000E-04    0.100000E-04    0.100000E-04    0.100000E-04    0.100000E-04    0.100000E-04
    0.100000E-04    0.100000E-04    0.100000E-04    0.100000E-04    0.100000E-04    0.100000E-04    0.100000E-04    0.100000E-04    0.100000E-04    0.100000E-04
    0.100000E-04    0.100000E-04    0.100000E-04    0.100000E-04    0.100000E-04    0.100000E-04    0.100000E-04    0.100000E-04    0.100000E-04    0.100000E-04
    0.100000E-04    0.100000E-04    0.100000E-04    0.100000E-04    0.100000E-04    0.100000E-04    0.100000E-04    0.100000E-04    0.100000E-04    0.100000E-04
    0.100000E-04    0.100000E-04    0.100000E-04    0.100000E-04    0.100000E-04    0.100000E-04    0.100000E-04    0.100000E-04    0.100000E-04    0.100000E-04
    0.100000E-04    0.100000E-04    0.100000E-04    0.100000E-04    0.100000E-04    0.100000E-04    0.100000E-04    0.100000E-04    0.100000E-04    0.100000E-04
    0.100000E-04    0.100000E-04    0.100000E-04    0.100000E-04    0.100000E-04    0.100000E-04    0.100000E-04    0.100000E-04    0.100000E-04    0.100000E-04
    0.100000E-04    0.100000E-04    0.100000E-04    0.100000E-04    0.100000E-04    0.100000E-04    0.100000E-04    0.100000E-04    0.100000E-04    0.100000E-04
    0.100000E-04    0.100000E-04    0.100000E-04    0.100000E-04    0.100000E-04    0.100000E-04    0.100000E-04    0.100000E-04    0.100000E-04    0.100000E-04
    0.100000E-04    0.100000E-04    0.100000E-04    0.100000E-04    0.100000E-04    0.100000E-04    0.100000E-04    0.100000E-04    0.100000E-04    0.100000E-04
    0.100000E-04    0.100000E-04    0.100000E-04    0.100000E-04    0.100000E-04    0.100000E-04    0.100000E-04    0.100000E-04    0.100000E-04    0.100000E-04
    0.100000E-04    0.100000E-04    0.100000E-04    0.100000E-04    0.100000E-04    0.100000E-04    0.100000E-04    0.100000E-04    0.100000E-04    0.100000E-04
    0.100000E-04    0.100000E-04    0.100000E-04    0.100000E-04    0.100000E-04    0.100000E-04    0.100000E-04    0.100000E-04    0.100000E-04    0.100000E-04
    0.100000E-04    0.100000E-04    0.100000E-04    0.100000E-04    0.100000E-04    0.100000E-04    0.100000E-04    0.100000E-04    0.100000E-04    0.100000E-04
SCALARS temp float 1
LOOKUP_TABLE default
    0.300000E+02    0.300000E+02    0.300000E+02    0.295528E+02    0.295528E+02    0.295528E+02    0.291155E+02    0.291155E+02    0.291155E+02    0.286879E+02
    0.286879E+02    0.286879E+02    0.282697E+02    0.282697E+02    0.282697E+02    0.278608E+02    0.278608E+02    0.278608E+02    0.274609E+02    0.274609E+02
    0.274609E+02    0.270698E+02    0.270698E+02    0.270698E+02    0.266874E+02    0.266874E+02    0.266874E+02    0.263134E+02    0.263134E+02    0.263134E+02
    0.259477E+02    0.259477E+02    0.259477E+02    0.255901E+02    0.255901E+02    0.255901E+02    0.252404E+02    0.252404E+02    0.252404E+02    0.248984E+02
    0.248984E+02    0.248984E+02    0.245639E+02    0.245639E+02    0.245639E+02    0.242369E+02    0.242369E+02    0.242369E+02    0.239171E+02    0.239171E+02
    0.239171E+02    0.236043E+02    0.236043E+02    0.236043E+02    0.232985E+02    0.232985E+02    0.232985E+02    0.229994E+02    0.229994E+02    0.229994E+02
    0.227069E+02    0.227069E+02    0.227069E+02    0.224209E+02    0.224209E+02    0.224209E+02    0.221412E+02    0.221412E+02    0.221412E+02    0.218677E+02
    0.218677E+02    0.218677E+02    0.216002E+02    0.216002E+02    0.216002E+02    0.213386E+02    0.213386E+02    0.213386E+02    0.210828E+02    0.210828E+02
    0.210828E+02    0.208327E+02    0.208327E+02    0.208327E+02    0.205881E+02    0.205881E+02    0.205881E+02    0.203489E+02    0.203489E+02    0.203489E+02
    0.201150E+02    0.201150E+02    0.201150E+02    0.198862E+02    0.198862E+02    0.198862E+02    0.196626E+02    0.196626E+02    0.196626E+02    0.194438E+02
    0.194438E+02    0.194438E+02    0.192299E+02    0.192299E+02    0.192299E+02    0.190207E+02    0.190207E+02    0.190207E+02    0.188161E+02    0.188161E+02
    0.188161E+02    0.186161E+02    0.186161E+02    0.186161E+02    0.184205E+02    0.184205E+02    0.184205E+02    0.182292E+02    0.182292E+02    0.182292E+02
    0.180421E+02    0.180421E+02    0.180421E+02    0.178591E+02    0.178591E+02    0.178591E+02    0.176802E+02    0.176802E+02    0.176802E+02    0.175053E+02
    0.175053E+02    0.175053E+02    0.173342E+02    0.173342E+02    0.173342E+02    0.171669E+02    0.171669E+02    0.171669E+02    0.170033E+02    0.170033E+02
    0.170033E+02    0.168433E+02    0.168433E+02    0.168433E+02    0.166869E+02    0.166869E+02    0.166869E+02    0.165339E+02    0.165339E+02    0.165339E+02
    0.163843E+02    0.163843E+02    0.163843E+02    0.162379E+02    0.162379E+02    0.162379E+02    0.160949E+02    0.160949E+02    0.160949E+02    0.159550E+02
    0.159550E+02    0.159550E+02    0.158181E+02    0.158181E+02    0.158181E+02    0.156843E+02    0.156843E+02    0.156843E+02    0.155535E+02    0.155535E+02
    0.155535E+02    0.154255E+02    0.154255E+02    0.154255E+02    0.153004E+02    0.153004E+02    0.153004E+02    0.151780E+02    0.151780E+02    0.151780E+02
    0.150584E+02    0.150584E+02    0.150584E+02    0.149414E+02    0.149414E+02    0.149414E+02    0.148270E+02    0.148270E+02    0.148270E+02    0.147151E+02
    0.147151E+02    0.147151E+02    0.146056E+02    0.146056E+02    0.146056E+02    0.144986E+02    0.144986E+02    0.144986E+02    0.143940E+02    0.143940E+02
    0.143940E+02    0.142916E+02    0.142916E+02    0.142916E+02    0.141916E+02    0.141916E+02    0.141916E+02    0.140937E+02    0.140937E+02    0.140937E+02
    0.139980E+02    0.139980E+02    0.139980E+02    0.139044E+02    0.139044E+02    0.139044E+02    0.138129E+02    0.138129E+02    0.138129E+02    0.137234E+02
    0.137234E+02    0.137234E+02    0.136359E+02    0.136359E+02    0.136359E+02    0.135503E+02    0.135503E+02    0.135503E+02    0.134666E+02    0.134666E+02
    0.134666E+02    0.133848E+02    0.133848E+02    0.133848E+02    0.133048E+02    0.133048E+02    0.133048E+02    0.132265E+02    0.132265E+02    0.132265E+02
    0.131500E+02    0.131500E+02    0.131500E+02    0.130751E+02    0.130751E+02    0.130751E+02    0.130019E+02    0.130019E+02    0.130019E+02    0.129304E+02
    0.129304E+02    0.129304E+02    0.128604E+02    0.128604E+02    0.128604E+02    0.127919E+02    0.127919E+02    0.127919E+02    0.127250E+02    0.127250E+02
    0.127250E+02    0.126595E+02    0.126595E+02    0.126595E+02    0.125955E+02    0.125955E+02    0.125955E+02    0.125329E+02    0.125329E+02    0.125329E+02
    0.124717E+02    0.124717E+02    0.124717E+02    0.124119E+02    0.124119E+02    0.124119E+02    0.123533E+02    0.123533E+02    0.123533E+02    0.122961E+02
    0.122961E+02    0.122961E+02    0.122401E+02    0.122401E+02    0.122401E+02    0.121854E+02    0.121854E+02    0.121854E+02    0.121319E+02    0.121319E+02
    0.121319E+02    0.120795E+02    0.120795E+02    0.120795E+02    0.120283E+02    0.120283E+02    0.120283E+02    0.119783E+02    0.119783E+02    0.119783E+02
    0.119293E+02    0.119293E+02    0.119293E+02    0.118814E+02    0.118814E+02    0.118814E+02    0.118346E+02    0.118346E+02    0.118346E+02    0.117888E+02
    0.117888E+02    0.117888E+02    0.117441E+02    0.117441E+02    0.117441E+02    0.117003E+02    0.117003E+02    0.117003E+02    0.116575E+02    0.116575E+02
    0.116575E+02    0.116156E+02    0.116156E+02    0.116156E+02    0.115747E+02    0.115747E+02    0.115747E+02    0.115346E+02    0.115346E+02    0.115346E+02
    0.114955E+02    0.114955E+02    0.114955E+02    0.114572E+02    0.114572E+02    0.114572E+02    0.114198E+02    0.114198E+02    0.114198E+02    0.113832E+02
    0.113832E+02    0.113832E+02    0.113474E+02    0.113474E+02    0.113474E+02    0.113123E+02    0.113123E+02    0.113123E+02    0.112781E+02    0.112781E+02
    0.112781E+02    0.112446E+02    0.112446E+02    0.112446E+02    0.112119E+02    0.112119E+02    0.112119E+02    0.111799E+02    0.111799E+02    0.111799E+02
    0.111485E+02    0.111485E+02    0.111485E+02    0.111179E+02    0.111179E+02    0.111179E+02    0.110880E+02    0.110880E+02    0.110880E+02    0.110587E+02
    0.110587E+02    0.110587E+02    0.110301E+02    0.110301E+02    0.110301E+02    0.110021E+02    0.110021E+02    0.110021E+02    0.109747E+02    0.109747E+02
    0.109747E+02    0.109479E+02    0.109479E+02    0.109479E+02    0.109217E+02    0.109217E+02    0.109217E+02    0.108961E+02    0.108961E+02    0.108961E+02
    0.108711E+02    0.108711E+02    0.108711E+02    0.108466E+02    0.108466E+02    0.108466E+02    0.108226E+02    0.108226E+02    0.108226E+02    0.107992E+02
    0.107992E+02    0.107992E+02    0.107763E+02    0.107763E+02    0.107763E+02    0.107539E+02    0.107539E+02    0.107539E+02    0.107320E+02    0.107320E+02
    0.107320E+02    0.107106E+02    0.107106E+02    0.107106E+02    0.106897E+02    0.106897E+02    0.106897E+02    0.106692E+02    0.106692E+02    0.106692E+02
    0.106492E+02    0.106492E+02    0.106492E+02    0.106296E+02    0.106296E+02    0.106296E+02    0.106104E+02    0.106104E+02    0.106104E+02    0.105917E+02
    0.105917E+02    0.105917E+02    0.105734E+02    0.105734E+02    0.105734E+02    0.105555E+02    0.105555E+02    0.105555E+02    0.105380E+02    0.105380E+02
    0.105380E+02    0.105208E+02    0.105208E+02    0.105208E+02    0.105041E+02    0.105041E+02    0.105041E+02    0.104877E+02    0.104877E+02    0.104877E+02
    0.104717E+02    0.104717E+02    0.104717E+02    0.104560E+02    0.104560E+02    0.104560E+02    0.104407E+02    0.104407E+02    0.104407E+02    0.104257E+02
    0.104257E+02    0.104257E+02    0.104111E+02    0.104111E+02    0.104111E+02    0.103968E+02    0.103968E+02    0.103968E+02    0.103827E+02    0.103827E+02
    0.103827E+02    0.103690E+02    0.103690E+02    0.103690E+02    0.103557E+02    0.103557E+02    0.103557E+02    0.103426E+02    0.103426E+02    0.103426E+02
    0.103297E+02    0.103297E+02    0.103297E+02    0.103172E+02    0.103172E+02    0.103172E+02    0.103050E+02    0.103050E+02    0.103050E+02    0.102930E+02
    0.102930E+02    0.102930E+02    0.102813E+02    0.102813E+02    0.102813E+02    0.102698E+02    0.102698E+02    0.102698E+02    0.102586E+02    0.102586E+02
    0.102586E+02    0.102477E+02    0.102477E+02    0.102477E+02    0.102369E+02    0.102369E+02    0.102369E+02    0.102265E+02    0.102265E+02    0.102265E+02
    0.102162E+02    0.102162E+02    0.102162E+02    0.102062E+02    0.102062E+02    0.102062E+02    0.101964E+02    0.101964E+02    0.101964E+02    0.101868E+02
    0.101868E+02    0.101868E+02    0.101775E+02    0.101775E+02    0.101775E+02    0.101683E+02    0.101683E+02    0.101683E+02    0.101593E+02    0.101593E+02
    0.101593E+02    0.101506E+02    0.101506E+02    0.101506E+02    0.101420E+02    0.101420E+02    0.101420E+02    0.101336E+02    0.101336E+02    0.101336E+02
    0.101254E+02    0.101254E+02    0.101254E+02    0.101174E+02    0.101174E+02    0.101174E+02    0.101096E+02    0.101096E+02    0.101096E+02    0.101019E+02
    0.101019E+02    0.101019E+02    0.100944E+02    0.100944E+02    0.100944E+02    0.100871E+02    0.100871E+02    0.100871E+02    0.100799E+02    0.100799E+02
    0.100799E+02    0.100729E+02    0.100729E+02    0.100729E+02    0.100661E+02    0.100661E+02    0.100661E+02    0.100594E+02    0.100594E+02    0.100594E+02
    0.100528E+02    0.100528E+02    0.100528E+02    0.100464E+02    0.100464E+02    0.100464E+02    0.100402E+02    0.100402E+02    0.100402E+02    0.100340E+02
    0.100340E+02    0.100340E+02    0.100280E+02    0.100280E+02    0.100280E+02    0.100222E+02    0.100222E+02    0.100222E+02    0.100164E+02    0.100164E+02
    0.100164E+02    0.100108E+02    0.100108E+02    0.100108E+02    0.100054E+02    0.100054E+02    0.100054E+02    0.100000E+02    0.100000E+02    0.100000E+02
SCALARS lx float 1
LOOKUP_TABLE default
    0.299995E+01    0.299995E+01    0.299995E+01    0.299995E+01    0.299995E+01    0.299995E+01    0.299995E+01    0.299995E+01    0.299995E+01    0.299995E+01
    0.299995E+01    0.299995E+01    0.299995E+01    0.299995E+01    0.299995E+01    0.299995E+01    0.299995E+01    0.299995E+01    0.299995E+01    0.299995E+01
    0.299995E+01    0.299995E+01    0.299995E+01    0.299995E+01    0.299995E+01    0.299995E+01    0.299995E+01    0.299995E+01    0.299995E+01    0.299995E+01
    0.299995E+01    0.299995E+01    0.299995E+01    0.299995E+01    0.299995E+01    0.299995E+01    0.299995E+01    0.299995E+01    0.299995E+01    0.299995E+01