# vtk DataFile Version 2.0
residuals
ASCII
DATASET RECTILINEAR_GRID
DIMENSIONS        2      1      1
X_COORDINATES        2 float
    0.000000E+00    0.100000E+01
Y_COORDINATES        1 float
    0.100000E+01
Z_COORDINATES        1 float
    0.100000E+01

CELL_DATA       1
SCALARS obsnr        float 1
LOOKUP_TABLE default:mean
    1
SCALARS obstime      float 1
LOOKUP_TABLE default:mean
    0.100000E+00
SCALARS res_head_bef float 1
LOOKUP_TABLE default:mean
    0.126033E+01
SCALARS rms_head_bef float 1
LOOKUP_TABLE default:mean
    0.362143E-01
SCALARS res_temp_bef float 1
LOOKUP_TABLE default:mean
    0.000000E+00
SCALARS rms_temp_bef float 1
LOOKUP_TABLE default:mean
    0.000000E+00
SCALARS res_conc_bef float 1
LOOKUP_TABLE default:mean
    0.302450E+00
SCALARS rms_conc_bef float 1
LOOKUP_TABLE default:mean
    0.177405E-01
SCALARS res_kz_bef   float 1
LOOKUP_TABLE default:mean
    0.374807E+03
SCALARS rms_kz_bef   float 1
LOOKUP_TABLE default:mean
    0.624514E+00
SCALARS res_lz_bef   float 1
LOOKUP_TABLE default:mean
    0.000000E+00
SCALARS rms_lz_bef   float 1
LOOKUP_TABLE default:mean
    0.000000E+00
SCALARS res_por_bef  float 1
LOOKUP_TABLE default:mean
    0.000000E+00
SCALARS rms_por_bef  float 1
LOOKUP_TABLE default:mean
    0.000000E+00
SCALARS res_head_aft float 1
LOOKUP_TABLE default:mean
    0.126039E+01
SCALARS rms_head_aft float 1
LOOKUP_TABLE default:mean
    0.362151E-01
SCALARS res_temp_aft float 1
LOOKUP_TABLE default:mean
    0.000000E+00
SCALARS rms_temp_aft float 1
LOOKUP_TABLE default:mean
    0.000000E+00
SCALARS res_conc_aft float 1
LOOKUP_TABLE default:mean
    0.302454E+00
SCALARS rms_conc_aft float 1
LOOKUP_TABLE default:mean
    0.177406E-01
SCALARS res_kz_aft   float 1
LOOKUP_TABLE default:mean
    0.374869E+03
SCALARS rms_kz_aft   float 1
LOOKUP_TABLE default:mean
    0.624566E+00
SCALARS res_lz_aft   float 1
LOOKUP_TABLE default:mean
    0.000000E+00
SCALARS rms_lz_aft   float 1
LOOKUP_TABLE default:mean
    0.000000E+00
SCALARS res_por_aft  float 1
LOOKUP_TABLE default:mean
    0.000000E+00
SCALARS rms_por_aft  float 1
LOOKUP_TABLE default:mean
    0.000000E+00
