# vtk DataFile Version 2.0
assim_variables1000
ASCII

DATASET RECTILINEAR_GRID
DIMENSIONS       32     32      1
X_COORDINATES       32 float
    0.000000E+00    0.200000E+01    0.400000E+01    0.600000E+01    0.800000E+01    0.100000E+02    0.120000E+02    0.140000E+02    0.160000E+02    0.180000E+02
    0.200000E+02    0.220000E+02    0.240000E+02    0.260000E+02    0.280000E+02    0.300000E+02    0.320000E+02    0.340000E+02    0.360000E+02    0.380000E+02
    0.400000E+02    0.420000E+02    0.440000E+02    0.460000E+02    0.480000E+02    0.500000E+02    0.520000E+02    0.540000E+02    0.560000E+02    0.580000E+02
    0.600000E+02
    0.620000E+02
Y_COORDINATES       32 float
    0.000000E+00    0.200000E+01    0.400000E+01    0.600000E+01    0.800000E+01    0.100000E+02    0.120000E+02    0.140000E+02    0.160000E+02    0.180000E+02
    0.200000E+02    0.220000E+02    0.240000E+02    0.260000E+02    0.280000E+02    0.300000E+02    0.320000E+02    0.340000E+02    0.360000E+02    0.380000E+02
    0.400000E+02    0.420000E+02    0.440000E+02    0.460000E+02    0.480000E+02    0.500000E+02    0.520000E+02    0.540000E+02    0.560000E+02    0.580000E+02
    0.600000E+02
    0.620000E+02
Z_COORDINATES        1 float
    0.100000E+01

CELL_DATA     961
SCALARS head_mean                                float 1
LOOKUP_TABLE default:mean
    0.110000E+02    0.110000E+02    0.110000E+02    0.110000E+02    0.110000E+02    0.110000E+02    0.110000E+02    0.110000E+02    0.110000E+02    0.110000E+02
    0.110000E+02    0.110000E+02    0.110000E+02    0.110000E+02    0.110000E+02    0.110000E+02    0.110000E+02    0.110000E+02    0.110000E+02    0.110000E+02
    0.110000E+02    0.110000E+02    0.110000E+02    0.110000E+02    0.110000E+02    0.110000E+02    0.110000E+02    0.110000E+02    0.110000E+02    0.110000E+02
    0.110000E+02    0.109618E+02    0.109619E+02    0.109621E+02    0.109622E+02    0.109623E+02    0.109624E+02    0.109625E+02    0.109626E+02    0.109626E+02
    0.109627E+02    0.109627E+02    0.109628E+02    0.109629E+02    0.109629E+02    0.109629E+02    0.109630E+02    0.109630E+02    0.109630E+02    0.109631E+02
    0.109630E+02    0.109630E+02    0.109629E+02    0.109629E+02    0.109628E+02    0.109626E+02    0.109625E+02    0.109623E+02    0.109623E+02    0.109622E+02
    0.109621E+02    0.109620E+02    0.109254E+02    0.109255E+02    0.109256E+02    0.109258E+02    0.109261E+02    0.109262E+02    0.109263E+02    0.109265E+02
    0.109266E+02    0.109268E+02    0.109269E+02    0.109270E+02    0.109271E+02    0.109272E+02    0.109273E+02    0.109274E+02    0.109275E+02    0.109275E+02
    0.109275E+02    0.109275E+02    0.109274E+02    0.109273E+02    0.109272E+02    0.109271E+02    0.109268E+02    0.109266E+02    0.109264E+02    0.109262E+02
    0.109260E+02    0.109258E+02    0.109258E+02    0.108902E+02    0.108902E+02    0.108903E+02    0.108905E+02    0.108908E+02    0.108909E+02    0.108911E+02
    0.108913E+02    0.108915E+02    0.108918E+02    0.108920E+02    0.108921E+02    0.108923E+02    0.108925E+02    0.108926E+02    0.108927E+02    0.108928E+02
    0.108928E+02    0.108928E+02    0.108928E+02    0.108927E+02    0.108926E+02    0.108924E+02    0.108922E+02    0.108919E+02    0.108917E+02    0.108914E+02
    0.108912E+02    0.108909E+02    0.108907E+02    0.108906E+02    0.108558E+02    0.108558E+02    0.108559E+02    0.108561E+02    0.108563E+02    0.108566E+02
    0.108568E+02    0.108570E+02    0.108572E+02    0.108575E+02    0.108577E+02    0.108580E+02    0.108582E+02    0.108584E+02    0.108586E+02    0.108588E+02
    0.108589E+02    0.108589E+02    0.108588E+02    0.108586E+02    0.108585E+02    0.108584E+02    0.108582E+02    0.108580E+02    0.108577E+02    0.108574E+02
    0.108572E+02    0.108569E+02    0.108567E+02    0.108564E+02    0.108563E+02    0.108222E+02    0.108222E+02    0.108223E+02    0.108224E+02    0.108226E+02
    0.108229E+02    0.108231E+02    0.108233E+02    0.108236E+02    0.108238E+02    0.108241E+02    0.108244E+02    0.108246E+02    0.108249E+02    0.108251E+02
    0.108253E+02    0.108253E+02    0.108253E+02    0.108251E+02    0.108250E+02    0.108249E+02    0.108248E+02    0.108246E+02    0.108243E+02    0.108241E+02
    0.108238E+02    0.108235E+02    0.108233E+02    0.108230E+02    0.108228E+02    0.108227E+02    0.107891E+02    0.107892E+02    0.107893E+02    0.107893E+02
    0.107895E+02    0.107896E+02    0.107898E+02    0.107901E+02    0.107904E+02    0.107906E+02    0.107909E+02    0.107912E+02    0.107915E+02    0.107917E+02
    0.107919E+02    0.107920E+02    0.107920E+02    0.107920E+02    0.107919E+02    0.107918E+02    0.107917E+02    0.107915E+02    0.107913E+02    0.107911E+02
    0.107908E+02    0.107906E+02    0.107903E+02    0.107901E+02    0.107899E+02    0.107897E+02    0.107896E+02    0.107565E+02    0.107565E+02    0.107566E+02
    0.107567E+02    0.107567E+02    0.107569E+02    0.107570E+02    0.107573E+02    0.107576E+02    0.107579E+02    0.107581E+02    0.107584E+02    0.107586E+02
    0.107588E+02    0.107590E+02    0.107591E+02    0.107591E+02    0.107590E+02    0.107589E+02    0.107589E+02    0.107588E+02    0.107586E+02    0.107585E+02
    0.107582E+02    0.107580E+02    0.107578E+02    0.107576E+02    0.107574E+02    0.107572E+02    0.107571E+02    0.107570E+02    0.107243E+02    0.107242E+02
    0.107243E+02    0.107243E+02    0.107243E+02    0.107245E+02    0.107246E+02    0.107248E+02    0.107251E+02    0.107253E+02    0.107256E+02    0.107258E+02
    0.107260E+02    0.107262E+02    0.107263E+02    0.107264E+02    0.107264E+02    0.107263E+02    0.107263E+02    0.107262E+02    0.107261E+02    0.107260E+02
    0.107259E+02    0.107257E+02    0.107255E+02    0.107253E+02    0.107251E+02    0.107249E+02    0.107248E+02    0.107248E+02    0.107247E+02    0.106922E+02
    0.106921E+02    0.106921E+02    0.106922E+02    0.106923E+02    0.106924E+02    0.106925E+02    0.106927E+02    0.106928E+02    0.106930E+02    0.106932E+02
    0.106935E+02    0.106937E+02    0.106938E+02    0.106938E+02    0.106939E+02    0.106939E+02    0.106938E+02    0.106938E+02    0.106938E+02    0.106938E+02
    0.106937E+02    0.106935E+02    0.106934E+02    0.106932E+02    0.106930E+02    0.106928E+02    0.106927E+02    0.106926E+02    0.106925E+02    0.106925E+02
    0.106602E+02    0.106602E+02    0.106602E+02    0.106603E+02    0.106604E+02    0.106605E+02    0.106606E+02    0.106608E+02    0.106608E+02    0.106610E+02
    0.106611E+02    0.106612E+02    0.106614E+02    0.106614E+02    0.106614E+02    0.106615E+02    0.106615E+02    0.106616E+02    0.106616E+02    0.106617E+02
    0.106617E+02    0.106616E+02    0.106614E+02    0.106612E+02    0.106610E+02    0.106609E+02    0.106608E+02    0.106607E+02    0.106606E+02    0.106605E+02
    0.106604E+02    0.106285E+02    0.106285E+02    0.106285E+02    0.106285E+02    0.106286E+02    0.106287E+02    0.106288E+02    0.106289E+02    0.106289E+02
    0.106290E+02    0.106290E+02    0.106291E+02    0.106292E+02    0.106292E+02    0.106292E+02    0.106293E+02    0.106294E+02    0.106295E+02    0.106296E+02
    0.106297E+02    0.106297E+02    0.106296E+02    0.106295E+02    0.106293E+02    0.106292E+02    0.106290E+02    0.106289E+02    0.106288E+02    0.106287E+02
    0.106287E+02    0.106286E+02    0.105969E+02    0.105969E+02    0.105969E+02    0.105969E+02    0.105970E+02    0.105970E+02    0.105970E+02    0.105971E+02
    0.105970E+02    0.105971E+02    0.105971E+02    0.105972E+02    0.105972E+02    0.105972E+02    0.105973E+02    0.105974E+02    0.105975E+02    0.105976E+02
    0.105977E+02    0.105977E+02    0.105977E+02    0.105977E+02    0.105976E+02    0.105976E+02    0.105974E+02    0.105973E+02    0.105972E+02    0.105971E+02
    0.105970E+02    0.105970E+02    0.105970E+02    0.105655E+02    0.105654E+02    0.105655E+02    0.105655E+02    0.105655E+02    0.105654E+02    0.105654E+02
    0.105653E+02    0.105653E+02    0.105653E+02    0.105654E+02    0.105653E+02    0.105653E+02    0.105653E+02    0.105654E+02    0.105655E+02    0.105656E+02
    0.105657E+02    0.105658E+02    0.105658E+02    0.105657E+02    0.105657E+02    0.105658E+02    0.105658E+02    0.105657E+02    0.105656E+02    0.105656E+02
    0.105655E+02    0.105654E+02    0.105654E+02    0.105655E+02    0.105341E+02    0.105341E+02    0.105342E+02    0.105341E+02    0.105341E+02    0.105340E+02
    0.105338E+02    0.105337E+02    0.105337E+02    0.105336E+02    0.105336E+02    0.105336E+02    0.105335E+02    0.105335E+02    0.105335E+02    0.105336E+02
    0.105337E+02    0.105338E+02    0.105339E+02    0.105339E+02    0.105339E+02    0.105339E+02    0.105340E+02    0.105340E+02    0.105340E+02    0.105340E+02
    0.105340E+02    0.105339E+02    0.105339E+02    0.105339E+02    0.105339E+02    0.105027E+02    0.105027E+02    0.105027E+02    0.105027E+02    0.105026E+02
    0.105024E+02    0.105022E+02    0.105021E+02    0.105020E+02    0.105020E+02    0.105019E+02    0.105019E+02    0.105018E+02    0.105017E+02    0.105018E+02
    0.105018E+02    0.105019E+02    0.105019E+02    0.105021E+02    0.105021E+02    0.105021E+02    0.105021E+02    0.105022E+02    0.105023E+02    0.105024E+02
    0.105024E+02    0.105023E+02    0.105023E+02    0.105023E+02    0.105023E+02    0.105023E+02    0.104713E+02    0.104712E+02    0.104712E+02    0.104711E+02
    0.104709E+02    0.104707E+02    0.104706E+02    0.104704E+02    0.104703E+02    0.104702E+02    0.104702E+02    0.104702E+02    0.104701E+02    0.104701E+02
    0.104700E+02    0.104701E+02    0.104701E+02    0.104702E+02    0.104702E+02    0.104703E+02    0.104703E+02    0.104704E+02    0.104705E+02    0.104706E+02
    0.104707E+02    0.104707E+02    0.104707E+02    0.104707E+02    0.104707E+02    0.104707E+02    0.104707E+02    0.104396E+02    0.104396E+02    0.104395E+02
    0.104394E+02    0.104392E+02    0.104390E+02    0.104388E+02    0.104386E+02    0.104385E+02    0.104384E+02    0.104384E+02    0.104384E+02    0.104384E+02
    0.104383E+02    0.104382E+02    0.104382E+02    0.104382E+02    0.104382E+02    0.104383E+02    0.104384E+02    0.104385E+02    0.104386E+02    0.104387E+02
    0.104389E+02    0.104390E+02    0.104390E+02    0.104391E+02    0.104390E+02    0.104390E+02    0.104390E+02    0.104390E+02    0.104076E+02    0.104076E+02
    0.104075E+02    0.104074E+02    0.104072E+02    0.104071E+02    0.104069E+02    0.104067E+02    0.104066E+02    0.104065E+02    0.104065E+02    0.104065E+02
    0.104064E+02    0.104064E+02    0.104063E+02    0.104062E+02    0.104062E+02    0.104062E+02    0.104063E+02    0.104063E+02    0.104065E+02    0.104067E+02
    0.104069E+02    0.104070E+02    0.104071E+02    0.104072E+02    0.104073E+02    0.104072E+02    0.104072E+02    0.104073E+02    0.104073E+02    0.103754E+02
    0.103754E+02    0.103754E+02    0.103752E+02    0.103750E+02    0.103749E+02    0.103748E+02    0.103747E+02    0.103747E+02    0.103746E+02    0.103744E+02
    0.103744E+02    0.103743E+02    0.103742E+02    0.103742E+02    0.103741E+02    0.103741E+02    0.103741E+02    0.103741E+02    0.103742E+02    0.103744E+02
    0.103746E+02    0.103748E+02    0.103750E+02    0.103751E+02    0.103752E+02    0.103753E+02    0.103754E+02    0.103754E+02    0.103755E+02    0.103756E+02
    0.103431E+02    0.103431E+02    0.103430E+02    0.103429E+02    0.103428E+02    0.103427E+02    0.103426E+02    0.103425E+02    0.103425E+02    0.103424E+02
    0.103423E+02    0.103421E+02    0.103420E+02    0.103419E+02    0.103418E+02    0.103418E+02    0.103418E+02    0.103418E+02    0.103418E+02    0.103419E+02
    0.103420E+02    0.103422E+02    0.103425E+02    0.103427E+02    0.103429E+02    0.103431E+02    0.103432E+02    0.103434E+02    0.103435E+02    0.103436E+02
    0.103437E+02    0.103107E+02    0.103106E+02    0.103106E+02    0.103105E+02    0.103104E+02    0.103103E+02    0.103102E+02    0.103102E+02    0.103102E+02
    0.103101E+02    0.103100E+02    0.103098E+02    0.103096E+02    0.103095E+02    0.103094E+02    0.103094E+02    0.103094E+02    0.103094E+02    0.103094E+02
    0.103094E+02    0.103096E+02    0.103098E+02    0.103100E+02    0.103103E+02    0.103105E+02    0.103108E+02    0.103110E+02    0.103112E+02    0.103114E+02
    0.103114E+02    0.103115E+02    0.102781E+02    0.102781E+02    0.102781E+02    0.102780E+02    0.102780E+02    0.102779E+02    0.102778E+02    0.102777E+02
    0.102777E+02    0.102776E+02    0.102775E+02    0.102773E+02    0.102771E+02    0.102770E+02    0.102769E+02    0.102768E+02    0.102768E+02    0.102768E+02
    0.102768E+02    0.102769E+02    0.102771E+02    0.102772E+02    0.102774E+02    0.102777E+02    0.102780E+02    0.102783E+02    0.102785E+02    0.102787E+02
    0.102789E+02    0.102790E+02    0.102791E+02    0.102454E+02    0.102455E+02    0.102454E+02    0.102454E+02    0.102453E+02    0.102452E+02    0.102451E+02
    0.102450E+02    0.102449E+02    0.102447E+02    0.102446E+02    0.102445E+02    0.102444E+02    0.102443E+02    0.102441E+02    0.102441E+02    0.102440E+02
    0.102440E+02    0.102441E+02    0.102442E+02    0.102443E+02    0.102445E+02    0.102447E+02    0.102449E+02    0.102452E+02    0.102455E+02    0.102458E+02
    0.102460E+02    0.102462E+02    0.102464E+02    0.102464E+02    0.102125E+02    0.102125E+02    0.102124E+02    0.102123E+02    0.102123E+02    0.102122E+02
    0.102121E+02    0.102119E+02    0.102117E+02    0.102115E+02    0.102114E+02    0.102113E+02    0.102112E+02    0.102111E+02    0.102111E+02    0.102110E+02
    0.102110E+02    0.102110E+02    0.102111E+02    0.102112E+02    0.102112E+02    0.102114E+02    0.102116E+02    0.102118E+02    0.102121E+02    0.102124E+02
    0.102127E+02    0.102130E+02    0.102132E+02    0.102133E+02    0.102134E+02    0.101792E+02    0.101791E+02    0.101791E+02    0.101789E+02    0.101788E+02
    0.101787E+02    0.101786E+02    0.101784E+02    0.101782E+02    0.101780E+02    0.101779E+02    0.101777E+02    0.101777E+02    0.101776E+02    0.101775E+02
    0.101775E+02    0.101775E+02    0.101775E+02    0.101776E+02    0.101777E+02    0.101778E+02    0.101779E+02    0.101781E+02    0.101783E+02    0.101785E+02
    0.101789E+02    0.101792E+02    0.101795E+02    0.101797E+02    0.101799E+02    0.101800E+02    0.101454E+02    0.101453E+02    0.101452E+02    0.101450E+02
    0.101449E+02    0.101447E+02    0.101446E+02    0.101444E+02    0.101443E+02    0.101441E+02    0.101439E+02    0.101438E+02    0.101437E+02    0.101436E+02
    0.101435E+02    0.101435E+02    0.101435E+02    0.101435E+02    0.101436E+02    0.101437E+02    0.101439E+02    0.101440E+02    0.101442E+02    0.101443E+02
    0.101445E+02    0.101448E+02    0.101451E+02    0.101454E+02    0.101457E+02    0.101460E+02    0.101461E+02    0.101108E+02    0.101108E+02    0.101107E+02
    0.101105E+02    0.101103E+02    0.101102E+02    0.101100E+02    0.101099E+02    0.101097E+02    0.101095E+02    0.101094E+02    0.101093E+02    0.101091E+02
    0.101091E+02    0.101090E+02    0.101089E+02    0.101090E+02    0.101090E+02    0.101091E+02    0.101092E+02    0.101093E+02    0.101094E+02    0.101095E+02
    0.101097E+02    0.101099E+02    0.101101E+02    0.101104E+02    0.101107E+02    0.101110E+02    0.101113E+02    0.101114E+02    0.100754E+02    0.100753E+02
    0.100752E+02    0.100751E+02    0.100749E+02    0.100748E+02    0.100747E+02    0.100745E+02    0.100743E+02    0.100741E+02    0.100740E+02    0.100740E+02
    0.100738E+02    0.100738E+02    0.100738E+02    0.100737E+02    0.100738E+02    0.100738E+02    0.100739E+02    0.100740E+02    0.100741E+02    0.100741E+02
    0.100742E+02    0.100743E+02    0.100744E+02    0.100746E+02    0.100749E+02    0.100752E+02    0.100755E+02    0.100757E+02    0.100758E+02    0.100387E+02
    0.100386E+02    0.100385E+02    0.100384E+02    0.100383E+02    0.100382E+02    0.100381E+02    0.100380E+02    0.100379E+02    0.100378E+02    0.100377E+02
    0.100377E+02    0.100376E+02    0.100375E+02    0.100376E+02    0.100376E+02    0.100376E+02    0.100377E+02    0.100377E+02    0.100378E+02    0.100378E+02
    0.100378E+02    0.100378E+02    0.100379E+02    0.100380E+02    0.100381E+02    0.100383E+02    0.100385E+02    0.100387E+02    0.100388E+02    0.100389E+02
    0.100000E+02    0.100000E+02    0.100000E+02    0.100000E+02    0.100000E+02    0.100000E+02    0.100000E+02    0.100000E+02    0.100000E+02    0.100000E+02
    0.100000E+02    0.100000E+02    0.100000E+02    0.100000E+02    0.100000E+02    0.100000E+02    0.100000E+02    0.100000E+02    0.100000E+02    0.100000E+02
    0.100000E+02    0.100000E+02    0.100000E+02    0.100000E+02    0.100000E+02    0.100000E+02    0.100000E+02    0.100000E+02    0.100000E+02    0.100000E+02
    0.100000E+02
SCALARS head_std                                 float 1
LOOKUP_TABLE default
    0.316228E-04    0.316228E-04    0.316228E-04    0.316228E-04    0.316228E-04    0.316228E-04    0.316228E-04    0.316228E-04    0.316228E-04    0.316228E-04
    0.316228E-04    0.316228E-04    0.316228E-04    0.316228E-04    0.316228E-04    0.316228E-04    0.316228E-04    0.316228E-04    0.316228E-04    0.316228E-04
    0.316228E-04    0.316228E-04    0.316228E-04    0.316228E-04    0.316228E-04    0.316228E-04    0.316228E-04    0.316228E-04    0.316228E-04    0.316228E-04
    0.316228E-04    0.313450E-01    0.310773E-01    0.308563E-01    0.306370E-01    0.302958E-01    0.299395E-01    0.295627E-01    0.294154E-01    0.291698E-01
    0.290089E-01    0.287863E-01    0.287434E-01    0.286768E-01    0.286220E-01    0.285229E-01    0.284069E-01    0.285363E-01    0.285653E-01    0.285469E-01
    0.286676E-01    0.287021E-01    0.289882E-01    0.291434E-01    0.294607E-01    0.299128E-01    0.300991E-01    0.303917E-01    0.305575E-01    0.308452E-01
    0.312471E-01    0.315655E-01    0.570404E-01    0.567994E-01    0.565744E-01    0.560160E-01    0.554706E-01    0.549780E-01    0.544617E-01    0.539460E-01
    0.535243E-01    0.531960E-01    0.529190E-01    0.527384E-01    0.526750E-01    0.525434E-01    0.524874E-01    0.523512E-01    0.522561E-01    0.523118E-01
    0.523470E-01    0.524414E-01    0.526618E-01    0.530077E-01    0.533858E-01    0.537370E-01    0.542382E-01    0.547210E-01    0.553477E-01    0.557780E-01
    0.562636E-01    0.567326E-01    0.570291E-01    0.788181E-01    0.785755E-01    0.782435E-01    0.776360E-01    0.769645E-01    0.764132E-01    0.757944E-01
    0.752100E-01    0.745979E-01    0.740434E-01    0.736236E-01    0.732904E-01    0.730684E-01    0.729347E-01    0.728449E-01    0.727593E-01    0.726280E-01
    0.726388E-01    0.727591E-01    0.728971E-01    0.732551E-01    0.736419E-01    0.740776E-01    0.745533E-01    0.751870E-01    0.758921E-01    0.765535E-01
    0.771854E-01    0.778198E-01    0.782631E-01    0.784960E-01    0.973432E-01    0.971727E-01    0.967504E-01    0.962095E-01    0.954885E-01    0.947979E-01
    0.940332E-01    0.933751E-01    0.927435E-01    0.921094E-01    0.915519E-01    0.911037E-01    0.907486E-01    0.904761E-01    0.903140E-01    0.901918E-01
    0.901163E-01    0.902200E-01    0.905163E-01    0.907929E-01    0.911307E-01    0.915526E-01    0.920329E-01    0.926286E-01    0.933340E-01    0.940630E-01
    0.947632E-01    0.954726E-01    0.962197E-01    0.967791E-01    0.969495E-01    0.113272E+00    0.113106E+00    0.112658E+00    0.112122E+00    0.111383E+00
    0.110593E+00    0.109826E+00    0.109018E+00    0.108365E+00    0.107767E+00    0.107211E+00    0.106716E+00    0.106236E+00    0.105791E+00    0.105490E+00
    0.105363E+00    0.105363E+00    0.105600E+00    0.105954E+00    0.106309E+00    0.106671E+00    0.107139E+00    0.107736E+00    0.108393E+00    0.109062E+00
    0.109804E+00    0.110585E+00    0.111382E+00    0.112102E+00    0.112604E+00    0.112814E+00    0.126903E+00    0.126735E+00    0.126337E+00    0.125790E+00
    0.125114E+00    0.124303E+00    0.123517E+00    0.122694E+00    0.121994E+00    0.121402E+00    0.120780E+00    0.120200E+00    0.119717E+00    0.119299E+00
    0.118959E+00    0.118828E+00    0.118892E+00    0.119154E+00    0.119464E+00    0.119767E+00    0.120204E+00    0.120804E+00    0.121512E+00    0.122168E+00
    0.122854E+00    0.123648E+00    0.124438E+00    0.125168E+00    0.125780E+00    0.126209E+00    0.126459E+00    0.138574E+00    0.138430E+00    0.138016E+00
    0.137490E+00    0.136930E+00    0.136200E+00    0.135418E+00    0.134665E+00    0.133890E+00    0.133191E+00    0.132582E+00    0.131984E+00    0.131493E+00
    0.131116E+00    0.130820E+00    0.130704E+00    0.130784E+00    0.130951E+00    0.131198E+00    0.131552E+00    0.132066E+00    0.132688E+00    0.133417E+00
    0.134176E+00    0.134926E+00    0.135722E+00    0.136474E+00    0.137113E+00    0.137612E+00    0.137973E+00    0.138182E+00    0.148536E+00    0.148402E+00
    0.148036E+00    0.147543E+00    0.147020E+00    0.146364E+00    0.145685E+00    0.144972E+00    0.144206E+00    0.143421E+00    0.142799E+00    0.142251E+00
    0.141754E+00    0.141335E+00    0.141062E+00    0.140965E+00    0.141044E+00    0.141209E+00    0.141493E+00    0.141949E+00    0.142457E+00    0.143043E+00
    0.143762E+00    0.144539E+00    0.145340E+00    0.146108E+00    0.146814E+00    0.147412E+00    0.147902E+00    0.148183E+00    0.148311E+00    0.157170E+00
    0.157027E+00    0.156703E+00    0.156206E+00    0.155604E+00    0.155002E+00    0.154346E+00    0.153667E+00    0.152922E+00    0.152179E+00    0.151463E+00
    0.150902E+00    0.150408E+00    0.150033E+00    0.149802E+00    0.149737E+00    0.149777E+00    0.149991E+00    0.150328E+00    0.150789E+00    0.151273E+00
    0.151897E+00    0.152635E+00    0.153396E+00    0.154181E+00    0.154953E+00    0.155629E+00    0.156186E+00    0.156672E+00    0.156999E+00    0.157130E+00
    0.164554E+00    0.164400E+00    0.164106E+00    0.163631E+00    0.162981E+00    0.162316E+00    0.161621E+00    0.160914E+00    0.160165E+00    0.159432E+00
    0.158737E+00    0.158143E+00    0.157646E+00    0.157287E+00    0.157083E+00    0.157010E+00    0.157067E+00    0.157293E+00    0.157651E+00    0.158040E+00
    0.158550E+00    0.159232E+00    0.160003E+00    0.160823E+00    0.161605E+00    0.162325E+00    0.162963E+00    0.163492E+00    0.163960E+00    0.164304E+00
    0.164477E+00    0.170574E+00    0.170451E+00    0.170135E+00    0.169671E+00    0.169100E+00    0.168363E+00    0.167605E+00    0.166822E+00    0.166070E+00
    0.165329E+00    0.164661E+00    0.164061E+00    0.163575E+00    0.163229E+00    0.163011E+00    0.162943E+00    0.163018E+00    0.163230E+00    0.163532E+00
    0.163934E+00    0.164482E+00    0.165188E+00    0.165967E+00    0.166796E+00    0.167607E+00    0.168330E+00    0.168926E+00    0.169431E+00    0.169808E+00
    0.170092E+00    0.170244E+00    0.175205E+00    0.175121E+00    0.174804E+00    0.174323E+00    0.173736E+00    0.173033E+00    0.172231E+00    0.171425E+00
    0.170676E+00    0.169959E+00    0.169278E+00    0.168670E+00    0.168209E+00    0.167895E+00    0.167669E+00    0.167599E+00    0.167694E+00    0.167895E+00
    0.168156E+00    0.168539E+00    0.169107E+00    0.169779E+00    0.170532E+00    0.171306E+00    0.172097E+00    0.172802E+00    0.173428E+00    0.173948E+00
    0.174304E+00    0.174517E+00    0.174632E+00    0.178553E+00    0.178428E+00    0.178101E+00    0.177625E+00    0.177004E+00    0.176282E+00    0.175500E+00
    0.174716E+00    0.173964E+00    0.173245E+00    0.172611E+00    0.172071E+00    0.171640E+00    0.171268E+00    0.171050E+00    0.170967E+00    0.171042E+00
    0.171250E+00    0.171543E+00    0.171906E+00    0.172379E+00    0.173003E+00    0.173675E+00    0.174394E+00    0.175126E+00    0.175830E+00    0.176486E+00
    0.177043E+00    0.177452E+00    0.177680E+00    0.177800E+00    0.180635E+00    0.180453E+00    0.180131E+00    0.179649E+00    0.179026E+00    0.178267E+00
    0.177498E+00    0.176740E+00    0.175993E+00    0.175320E+00    0.174736E+00    0.174241E+00    0.173815E+00    0.173421E+00    0.173169E+00    0.173045E+00
    0.173090E+00    0.173283E+00    0.173600E+00    0.174015E+00    0.174447E+00    0.174989E+00    0.175601E+00    0.176285E+00    0.176935E+00    0.177610E+00
    0.178240E+00    0.178819E+00    0.179296E+00    0.179565E+00    0.179659E+00    0.181391E+00    0.181198E+00    0.180909E+00    0.180451E+00    0.179797E+00
    0.179048E+00    0.178296E+00    0.177557E+00    0.176850E+00    0.176163E+00    0.175576E+00    0.175066E+00    0.174666E+00    0.174331E+00    0.174047E+00
    0.173896E+00    0.173904E+00    0.174056E+00    0.174354E+00    0.174770E+00    0.175219E+00    0.175746E+00    0.176336E+00    0.176979E+00    0.177619E+00
    0.178250E+00    0.178853E+00    0.179416E+00    0.179917E+00    0.180205E+00    0.180287E+00    0.180811E+00    0.180690E+00    0.180413E+00    0.179966E+00
    0.179357E+00    0.178673E+00    0.177938E+00    0.177170E+00    0.176435E+00    0.175720E+00    0.175072E+00    0.174544E+00    0.174152E+00    0.173861E+00
    0.173610E+00    0.173478E+00    0.173438E+00    0.173554E+00    0.173791E+00    0.174190E+00    0.174649E+00    0.175188E+00    0.175791E+00    0.176412E+00
    0.177101E+00    0.177739E+00    0.178381E+00    0.178965E+00    0.179419E+00    0.179680E+00    0.179801E+00    0.178967E+00    0.178889E+00    0.178603E+00
    0.178180E+00    0.177632E+00    0.176981E+00    0.176210E+00    0.175427E+00    0.174679E+00    0.173966E+00    0.173291E+00    0.172774E+00    0.172349E+00
    0.172008E+00    0.171802E+00    0.171677E+00    0.171633E+00    0.171727E+00    0.171931E+00    0.172308E+00    0.172826E+00    0.173385E+00    0.173995E+00
    0.174656E+00    0.175389E+00    0.176116E+00    0.176791E+00    0.177370E+00    0.177791E+00    0.178078E+00    0.178211E+00    0.175740E+00    0.175668E+00
    0.175421E+00    0.175053E+00    0.174525E+00    0.173873E+00    0.173119E+00    0.172372E+00    0.171653E+00    0.170951E+00    0.170280E+00    0.169749E+00
    0.169294E+00    0.168884E+00    0.168637E+00    0.168519E+00    0.168523E+00    0.168607E+00    0.168825E+00    0.169163E+00    0.169717E+00    0.170329E+00
    0.170994E+00    0.171708E+00    0.172478E+00    0.173250E+00    0.173955E+00    0.174543E+00    0.174987E+00    0.175300E+00    0.175437E+00    0.171175E+00
    0.171094E+00    0.170849E+00    0.170511E+00    0.170003E+00    0.169416E+00    0.168781E+00    0.168038E+00    0.167325E+00    0.166669E+00    0.166026E+00
    0.165435E+00    0.164921E+00    0.164506E+00    0.164188E+00    0.164060E+00    0.164058E+00    0.164101E+00    0.164306E+00    0.164682E+00    0.165239E+00
    0.165903E+00    0.166645E+00    0.167425E+00    0.168235E+00    0.169036E+00    0.169804E+00    0.170433E+00    0.170939E+00    0.171276E+00    0.171456E+00
    0.165334E+00    0.165197E+00    0.164963E+00    0.164635E+00    0.164147E+00    0.163598E+00    0.163037E+00    0.162341E+00    0.161644E+00    0.161029E+00
    0.160403E+00    0.159800E+00    0.159272E+00    0.158830E+00    0.158493E+00    0.158339E+00    0.158281E+00    0.158261E+00    0.158459E+00    0.158854E+00
    0.159399E+00    0.160080E+00    0.160852E+00    0.161701E+00    0.162584E+00    0.163429E+00    0.164230E+00    0.164892E+00    0.165455E+00    0.165848E+00
    0.166042E+00    0.158170E+00    0.158030E+00    0.157796E+00    0.157433E+00    0.156991E+00    0.156415E+00    0.155822E+00    0.155196E+00    0.154559E+00
    0.153980E+00    0.153388E+00    0.152781E+00    0.152279E+00    0.151845E+00    0.151519E+00    0.151331E+00    0.151240E+00    0.151248E+00    0.151404E+00
    0.151747E+00    0.152247E+00    0.152911E+00    0.153687E+00    0.154568E+00    0.155446E+00    0.156334E+00    0.157178E+00    0.157925E+00    0.158502E+00
    0.158931E+00    0.159137E+00    0.149733E+00    0.149640E+00    0.149366E+00    0.148899E+00    0.148405E+00    0.147789E+00    0.147132E+00    0.146527E+00
    0.145955E+00    0.145411E+00    0.144864E+00    0.144325E+00    0.143856E+00    0.143479E+00    0.143157E+00    0.142945E+00    0.142835E+00    0.142875E+00
    0.143012E+00    0.143298E+00    0.143721E+00    0.144392E+00    0.145175E+00    0.145998E+00    0.146860E+00    0.147726E+00    0.148589E+00    0.149396E+00
    0.150023E+00    0.150490E+00    0.150763E+00    0.139858E+00    0.139741E+00    0.139355E+00    0.138790E+00    0.138116E+00    0.137491E+00    0.136857E+00
    0.136261E+00    0.135659E+00    0.135087E+00    0.134596E+00    0.134194E+00    0.133791E+00    0.133505E+00    0.133211E+00    0.132985E+00    0.132818E+00
    0.132887E+00    0.133084E+00    0.133348E+00    0.133731E+00    0.134392E+00    0.135152E+00    0.135930E+00    0.136783E+00    0.137624E+00    0.138431E+00
    0.139211E+00    0.139910E+00    0.140420E+00    0.140695E+00    0.128199E+00    0.127939E+00    0.127458E+00    0.126846E+00    0.126115E+00    0.125492E+00
    0.124881E+00    0.124251E+00    0.123647E+00    0.123062E+00    0.122615E+00    0.122217E+00    0.121892E+00    0.121625E+00    0.121419E+00    0.121280E+00
    0.121147E+00    0.121214E+00    0.121447E+00    0.121736E+00    0.122161E+00    0.122727E+00    0.123448E+00    0.124199E+00    0.124974E+00    0.125787E+00
    0.126566E+00    0.127330E+00    0.128040E+00    0.128553E+00    0.128828E+00    0.114494E+00    0.114182E+00    0.113647E+00    0.112928E+00    0.112186E+00
    0.111610E+00    0.111013E+00    0.110401E+00    0.109873E+00    0.109357E+00    0.108910E+00    0.108494E+00    0.108213E+00    0.107970E+00    0.107805E+00
    0.107722E+00    0.107658E+00    0.107756E+00    0.107999E+00    0.108285E+00    0.108736E+00    0.109299E+00    0.109900E+00    0.110558E+00    0.111231E+00
    0.111997E+00    0.112823E+00    0.113620E+00    0.114283E+00    0.114813E+00    0.115069E+00    0.986133E-01    0.982395E-01    0.976460E-01    0.968931E-01