# vtk DataFile Version 2.0
assim_variables1000
ASCII

DATASET RECTILINEAR_GRID
DIMENSIONS       32     32      1
X_COORDINATES       32 float
    0.000000E+00    0.200000E+01    0.400000E+01    0.600000E+01    0.800000E+01    0.100000E+02    0.120000E+02    0.140000E+02    0.160000E+02    0.180000E+02
    0.200000E+02    0.220000E+02    0.240000E+02    0.260000E+02    0.280000E+02    0.300000E+02    0.320000E+02    0.340000E+02    0.360000E+02    0.380000E+02
    0.400000E+02    0.420000E+02    0.440000E+02    0.460000E+02    0.480000E+02    0.500000E+02    0.520000E+02    0.540000E+02    0.560000E+02    0.580000E+02
    0.600000E+02
    0.620000E+02
Y_COORDINATES       32 float
    0.000000E+00    0.200000E+01    0.400000E+01    0.600000E+01    0.800000E+01    0.100000E+02    0.120000E+02    0.140000E+02    0.160000E+02    0.180000E+02
    0.200000E+02    0.220000E+02    0.240000E+02    0.260000E+02    0.280000E+02    0.300000E+02    0.320000E+02    0.340000E+02    0.360000E+02    0.380000E+02
    0.400000E+02    0.420000E+02    0.440000E+02    0.460000E+02    0.480000E+02    0.500000E+02    0.520000E+02    0.540000E+02    0.560000E+02    0.580000E+02
    0.600000E+02
    0.620000E+02
Z_COORDINATES        1 float
    0.100000E+01

CELL_DATA     961
SCALARS head_mean                                float 1
LOOKUP_TABLE default:mean
    0.110000E+02    0.110000E+02    0.110000E+02    0.110000E+02    0.110000E+02    0.110000E+02    0.110000E+02    0.110000E+02    0.110000E+02    0.110000E+02
    0.110000E+02    0.110000E+02    0.110000E+02    0.110000E+02    0.110000E+02    0.110000E+02    0.110000E+02    0.110000E+02    0.110000E+02    0.110000E+02
    0.110000E+02    0.110000E+02    0.110000E+02    0.110000E+02    0.110000E+02    0.110000E+02    0.110000E+02    0.110000E+02    0.110000E+02    0.110000E+02
    0.110000E+02    0.109619E+02    0.109620E+02    0.109621E+02    0.109622E+02    0.109623E+02    0.109625E+02    0.109626E+02    0.109626E+02    0.109627E+02
    0.109627E+02    0.109628E+02    0.109628E+02    0.109629E+02    0.109629E+02    0.109630E+02    0.109631E+02    0.109631E+02    0.109631E+02    0.109631E+02
    0.109630E+02    0.109630E+02    0.109630E+02    0.109629E+02    0.109628E+02    0.109627E+02    0.109625E+02    0.109624E+02    0.109623E+02    0.109622E+02
    0.109621E+02    0.109620E+02    0.109255E+02    0.109256E+02    0.109257E+02    0.109259E+02    0.109261E+02    0.109263E+02    0.109264E+02    0.109266E+02
    0.109267E+02    0.109268E+02    0.109270E+02    0.109271E+02    0.109272E+02    0.109273E+02    0.109273E+02    0.109274E+02    0.109275E+02    0.109276E+02
    0.109276E+02    0.109276E+02    0.109275E+02    0.109274E+02    0.109273E+02    0.109272E+02    0.109269E+02    0.109267E+02    0.109265E+02    0.109263E+02
    0.109261E+02    0.109259E+02    0.109259E+02    0.108903E+02    0.108903E+02    0.108904E+02    0.108907E+02    0.108909E+02    0.108911E+02    0.108912E+02
    0.108914E+02    0.108916E+02    0.108919E+02    0.108921E+02    0.108922E+02    0.108924E+02    0.108926E+02    0.108927E+02    0.108928E+02    0.108929E+02
    0.108930E+02    0.108929E+02    0.108929E+02    0.108928E+02    0.108927E+02    0.108925E+02    0.108923E+02    0.108920E+02    0.108918E+02    0.108915E+02
    0.108913E+02    0.108910E+02    0.108908E+02    0.108907E+02    0.108560E+02    0.108560E+02    0.108561E+02    0.108562E+02    0.108565E+02    0.108567E+02
    0.108570E+02    0.108572E+02    0.108574E+02    0.108576E+02    0.108579E+02    0.108581E+02    0.108584E+02    0.108586E+02    0.108587E+02    0.108589E+02
    0.108590E+02    0.108590E+02    0.108589E+02    0.108587E+02    0.108587E+02    0.108585E+02    0.108583E+02    0.108581E+02    0.108578E+02    0.108575E+02
    0.108573E+02    0.108571E+02    0.108568E+02    0.108565E+02    0.108565E+02    0.108223E+02    0.108224E+02    0.108225E+02    0.108226E+02    0.108228E+02
    0.108230E+02    0.108233E+02    0.108235E+02    0.108237E+02    0.108240E+02    0.108243E+02    0.108245E+02    0.108248E+02    0.108250E+02    0.108253E+02
    0.108254E+02    0.108255E+02    0.108254E+02    0.108253E+02    0.108252E+02    0.108251E+02    0.108249E+02    0.108247E+02    0.108245E+02    0.108242E+02
    0.108239E+02    0.108236E+02    0.108234E+02    0.108232E+02    0.108230E+02    0.108229E+02    0.107893E+02    0.107894E+02    0.107895E+02    0.107895E+02
    0.107897E+02    0.107898E+02    0.107900E+02    0.107903E+02    0.107906E+02    0.107908E+02    0.107911E+02    0.107914E+02    0.107917E+02    0.107919E+02
    0.107921E+02    0.107922E+02    0.107922E+02    0.107922E+02    0.107921E+02    0.107920E+02    0.107919E+02    0.107917E+02    0.107915E+02    0.107913E+02
    0.107910E+02    0.107907E+02    0.107905E+02    0.107903E+02    0.107901E+02    0.107899E+02    0.107898E+02    0.107567E+02    0.107567E+02    0.107568E+02
    0.107569E+02    0.107569E+02    0.107571E+02    0.107573E+02    0.107575E+02    0.107578E+02    0.107581E+02    0.107583E+02    0.107586E+02    0.107589E+02
    0.107591E+02    0.107592E+02    0.107593E+02    0.107593E+02    0.107592E+02    0.107592E+02    0.107591E+02    0.107590E+02    0.107588E+02    0.107587E+02
    0.107584E+02    0.107582E+02    0.107580E+02    0.107578E+02    0.107576E+02    0.107574E+02    0.107573E+02    0.107572E+02    0.107245E+02    0.107245E+02
    0.107245E+02    0.107245E+02    0.107246E+02    0.107247E+02    0.107249E+02    0.107251E+02    0.107253E+02    0.107256E+02    0.107258E+02    0.107261E+02
    0.107263E+02    0.107265E+02    0.107266E+02    0.107266E+02    0.107266E+02    0.107265E+02    0.107265E+02    0.107264E+02    0.107264E+02    0.107262E+02
    0.107261E+02    0.107259E+02    0.107257E+02    0.107255E+02    0.107253E+02    0.107251E+02    0.107250E+02    0.107250E+02    0.107249E+02    0.106924E+02
    0.106924E+02    0.106924E+02    0.106924E+02    0.106925E+02    0.106927E+02    0.106928E+02    0.106929E+02    0.106931E+02    0.106933E+02    0.106935E+02
    0.106937E+02    0.106939E+02    0.106940E+02    0.106941E+02    0.106941E+02    0.106941E+02    0.106941E+02    0.106940E+02    0.106941E+02    0.106940E+02
    0.106939E+02    0.106938E+02    0.106936E+02    0.106934E+02    0.106932E+02    0.106931E+02    0.106929E+02    0.106928E+02    0.106928E+02    0.106928E+02
    0.106605E+02    0.106605E+02    0.106605E+02    0.106606E+02    0.106607E+02    0.106608E+02    0.106609E+02    0.106610E+02    0.106611E+02    0.106613E+02
    0.106614E+02    0.106615E+02    0.106617E+02    0.106617E+02    0.106617E+02    0.106618E+02    0.106618E+02    0.106619E+02    0.106619E+02    0.106620E+02
    0.106620E+02    0.106619E+02    0.106617E+02    0.106615E+02    0.106613E+02    0.106612E+02    0.106611E+02    0.106610E+02    0.106609E+02    0.106608E+02
    0.106607E+02    0.106288E+02    0.106288E+02    0.106288E+02    0.106288E+02    0.106289E+02    0.106290E+02    0.106291E+02    0.106292E+02    0.106293E+02
    0.106293E+02    0.106293E+02    0.106294E+02    0.106295E+02    0.106295E+02    0.106295E+02    0.106296E+02    0.106297E+02    0.106298E+02    0.106299E+02
    0.106300E+02    0.106300E+02    0.106299E+02    0.106298E+02    0.106296E+02    0.106294E+02    0.106293E+02    0.106292E+02    0.106291E+02    0.106290E+02
    0.106289E+02    0.106289E+02    0.105972E+02    0.105972E+02    0.105972E+02    0.105972E+02    0.105973E+02    0.105973E+02    0.105974E+02    0.105974E+02
    0.105974E+02    0.105974E+02    0.105975E+02    0.105975E+02    0.105975E+02    0.105975E+02    0.105976E+02    0.105977E+02    0.105978E+02    0.105979E+02
    0.105980E+02    0.105980E+02    0.105980E+02    0.105980E+02    0.105979E+02    0.105979E+02    0.105977E+02    0.105976E+02    0.105975E+02    0.105974E+02
    0.105973E+02    0.105973E+02    0.105973E+02    0.105658E+02    0.105658E+02    0.105658E+02    0.105658E+02    0.105658E+02    0.105658E+02    0.105657E+02
    0.105656E+02    0.105656E+02    0.105656E+02    0.105657E+02    0.105657E+02    0.105657E+02    0.105657E+02    0.105657E+02    0.105658E+02    0.105659E+02
    0.105661E+02    0.105661E+02    0.105661E+02    0.105661E+02    0.105661E+02    0.105661E+02    0.105661E+02    0.105660E+02    0.105659E+02    0.105659E+02
    0.105658E+02    0.105657E+02    0.105657E+02    0.105658E+02    0.105344E+02    0.105345E+02    0.105345E+02    0.105345E+02    0.105344E+02    0.105343E+02
    0.105341E+02    0.105340E+02    0.105340E+02    0.105340E+02    0.105340E+02    0.105339E+02    0.105339E+02    0.105338E+02    0.105339E+02    0.105340E+02
    0.105340E+02    0.105341E+02    0.105342E+02    0.105342E+02    0.105342E+02    0.105342E+02    0.105343E+02    0.105343E+02    0.105344E+02    0.105343E+02
    0.105343E+02    0.105342E+02    0.105342E+02    0.105342E+02    0.105342E+02    0.105030E+02    0.105030E+02    0.105031E+02    0.105030E+02    0.105029E+02
    0.105027E+02    0.105026E+02    0.105024E+02    0.105023E+02    0.105023E+02    0.105023E+02    0.105022E+02    0.105021E+02    0.105021E+02    0.105021E+02
    0.105022E+02    0.105022E+02    0.105023E+02    0.105024E+02    0.105024E+02    0.105024E+02    0.105025E+02    0.105025E+02    0.105026E+02    0.105027E+02
    0.105027E+02    0.105026E+02    0.105026E+02    0.105026E+02    0.105026E+02    0.105026E+02    0.104716E+02    0.104715E+02    0.104715E+02    0.104714E+02
    0.104712E+02    0.104711E+02    0.104709E+02    0.104707E+02    0.104706E+02    0.104706E+02    0.104706E+02    0.104705E+02    0.104705E+02    0.104704E+02
    0.104704E+02    0.104704E+02    0.104705E+02    0.104705E+02    0.104706E+02    0.104706E+02    0.104707E+02    0.104707E+02    0.104708E+02    0.104709E+02
    0.104710E+02    0.104710E+02    0.104710E+02    0.104710E+02    0.104710E+02    0.104710E+02    0.104710E+02    0.104399E+02    0.104399E+02    0.104398E+02
    0.104397E+02    0.104395E+02    0.104393E+02    0.104391E+02    0.104390E+02    0.104388E+02    0.104388E+02    0.104387E+02    0.104388E+02    0.104387E+02
    0.104387E+02    0.104386E+02    0.104385E+02    0.104385E+02    0.104386E+02    0.104386E+02    0.104387E+02    0.104388E+02    0.104389E+02    0.104391E+02
    0.104392E+02    0.104393E+02    0.104393E+02    0.104393E+02    0.104393E+02    0.104393E+02    0.104393E+02    0.104393E+02    0.104079E+02    0.104079E+02
    0.104078E+02    0.104077E+02    0.104075E+02    0.104074E+02    0.104072E+02    0.104071E+02    0.104070E+02    0.104069E+02    0.104068E+02    0.104068E+02
    0.104068E+02    0.104067E+02    0.104066E+02    0.104065E+02    0.104065E+02    0.104065E+02    0.104066E+02    0.104066E+02    0.104068E+02    0.104070E+02
    0.104072E+02    0.104073E+02    0.104074E+02    0.104075E+02    0.104075E+02    0.104075E+02    0.104075E+02    0.104075E+02    0.104076E+02    0.103757E+02
    0.103757E+02    0.103757E+02    0.103755E+02    0.103753E+02    0.103752E+02    0.103751E+02    0.103751E+02    0.103750E+02    0.103749E+02    0.103748E+02
    0.103747E+02    0.103746E+02    0.103745E+02    0.103745E+02    0.103744E+02    0.103744E+02    0.103744E+02    0.103744E+02    0.103745E+02    0.103747E+02
    0.103749E+02    0.103751E+02    0.103753E+02    0.103754E+02    0.103755E+02    0.103756E+02    0.103756E+02    0.103757E+02    0.103758E+02    0.103759E+02
    0.103434E+02    0.103434E+02    0.103433E+02    0.103432E+02    0.103431E+02    0.103429E+02    0.103429E+02    0.103428E+02    0.103428E+02    0.103427E+02
    0.103426E+02    0.103424E+02    0.103423E+02    0.103422E+02    0.103421E+02    0.103421E+02    0.103421E+02    0.103421E+02    0.103421E+02    0.103422E+02
    0.103423E+02    0.103425E+02    0.103428E+02    0.103430E+02    0.103432E+02    0.103434E+02    0.103435E+02    0.103437E+02    0.103437E+02    0.103439E+02
    0.103439E+02    0.103109E+02    0.103109E+02    0.103108E+02    0.103108E+02    0.103107E+02    0.103106E+02    0.103105E+02    0.103105E+02    0.103105E+02
    0.103104E+02    0.103103E+02    0.103101E+02    0.103099E+02    0.103098E+02    0.103097E+02    0.103097E+02    0.103097E+02    0.103097E+02    0.103096E+02
    0.103097E+02    0.103098E+02    0.103100E+02    0.103102E+02    0.103105E+02    0.103108E+02    0.103111E+02    0.103112E+02    0.103114E+02    0.103116E+02
    0.103117E+02    0.103117E+02    0.102784E+02    0.102784E+02    0.102783E+02    0.102783E+02    0.102782E+02    0.102781E+02    0.102780E+02    0.102780E+02
    0.102780E+02    0.102779E+02    0.102777E+02    0.102776E+02    0.102774E+02    0.102773E+02    0.102771E+02    0.102771E+02    0.102771E+02    0.102771E+02
    0.102771E+02    0.102772E+02    0.102773E+02    0.102775E+02    0.102777E+02    0.102779E+02    0.102782E+02    0.102785E+02    0.102788E+02    0.102789E+02
    0.102791E+02    0.102792E+02    0.102793E+02    0.102457E+02    0.102457E+02    0.102456E+02    0.102456E+02    0.102456E+02    0.102455E+02    0.102454E+02
    0.102453E+02    0.102451E+02    0.102450E+02    0.102449E+02    0.102448E+02    0.102446E+02    0.102445E+02    0.102444E+02    0.102443E+02    0.102443E+02
    0.102443E+02    0.102444E+02    0.102444E+02    0.102445E+02    0.102447E+02    0.102449E+02    0.102452E+02    0.102455E+02    0.102458E+02    0.102460E+02
    0.102462E+02    0.102464E+02    0.102466E+02    0.102466E+02    0.102127E+02    0.102127E+02    0.102126E+02    0.102126E+02    0.102125E+02    0.102124E+02
    0.102123E+02    0.102121E+02    0.102119E+02    0.102117E+02    0.102116E+02    0.102115E+02    0.102114E+02    0.102113E+02    0.102113E+02    0.102112E+02
    0.102112E+02    0.102112E+02    0.102113E+02    0.102114E+02    0.102114E+02    0.102116E+02    0.102118E+02    0.102120E+02    0.102123E+02    0.102126E+02
    0.102129E+02    0.102132E+02    0.102134E+02    0.102135E+02    0.102136E+02    0.101794E+02    0.101793E+02    0.101792E+02    0.101791E+02    0.101790E+02
    0.101789E+02    0.101788E+02    0.101786E+02    0.101784E+02    0.101782E+02    0.101780E+02    0.101779E+02    0.101779E+02    0.101778E+02    0.101777E+02
    0.101777E+02    0.101776E+02    0.101777E+02    0.101778E+02    0.101779E+02    0.101780E+02    0.101781E+02    0.101783E+02    0.101785E+02    0.101787E+02
    0.101791E+02    0.101794E+02    0.101797E+02    0.101799E+02    0.101801E+02    0.101802E+02    0.101455E+02    0.101455E+02    0.101453E+02    0.101452E+02
    0.101450E+02    0.101449E+02    0.101448E+02    0.101446E+02    0.101444E+02    0.101443E+02    0.101441E+02    0.101439E+02    0.101438E+02    0.101438E+02
    0.101437E+02    0.101436E+02    0.101436E+02    0.101437E+02    0.101437E+02    0.101439E+02    0.101440E+02    0.101441E+02    0.101443E+02    0.101445E+02
    0.101447E+02    0.101449E+02    0.101452E+02    0.101456E+02    0.101459E+02    0.101461E+02    0.101462E+02    0.101109E+02    0.101109E+02    0.101108E+02
    0.101106E+02    0.101104E+02    0.101103E+02    0.101101E+02    0.101100E+02    0.101098E+02    0.101096E+02    0.101095E+02    0.101094E+02    0.101092E+02
    0.101092E+02    0.101091E+02    0.101090E+02    0.101091E+02    0.101091E+02    0.101092E+02    0.101093E+02    0.101094E+02    0.101095E+02    0.101097E+02
    0.101098E+02    0.101100E+02    0.101102E+02    0.101105E+02    0.101108E+02    0.101111E+02    0.101114E+02    0.101115E+02    0.100755E+02    0.100754E+02
    0.100753E+02    0.100751E+02    0.100750E+02    0.100749E+02    0.100747E+02    0.100746E+02    0.100744E+02    0.100742E+02    0.100741E+02    0.100740E+02
    0.100739E+02    0.100739E+02    0.100738E+02    0.100738E+02    0.100738E+02    0.100739E+02    0.100740E+02    0.100740E+02    0.100741E+02    0.100742E+02
    0.100742E+02    0.100743E+02    0.100745E+02    0.100747E+02    0.100750E+02    0.100753E+02    0.100756E+02    0.100757E+02    0.100759E+02    0.100388E+02
    0.100387E+02    0.100385E+02    0.100385E+02    0.100384E+02    0.100383E+02    0.100382E+02    0.100381E+02    0.100380E+02    0.100378E+02    0.100377E+02
    0.100377E+02    0.100376E+02    0.100376E+02    0.100376E+02    0.100377E+02    0.100377E+02    0.100377E+02    0.100378E+02    0.100378E+02    0.100378E+02
    0.100378E+02    0.100379E+02    0.100379E+02    0.100380E+02    0.100381E+02    0.100383E+02    0.100385E+02    0.100387E+02    0.100388E+02    0.100389E+02
    0.100000E+02    0.100000E+02    0.100000E+02    0.100000E+02    0.100000E+02    0.100000E+02    0.100000E+02    0.100000E+02    0.100000E+02    0.100000E+02
    0.100000E+02    0.100000E+02    0.100000E+02    0.100000E+02    0.100000E+02    0.100000E+02    0.100000E+02    0.100000E+02    0.100000E+02    0.100000E+02
    0.100000E+02    0.100000E+02    0.100000E+02    0.100000E+02    0.100000E+02    0.100000E+02    0.100000E+02    0.100000E+02    0.100000E+02    0.100000E+02
    0.100000E+02
SCALARS head_std                                 float 1
LOOKUP_TABLE default
    0.316228E-04    0.316228E-04    0.316228E-04    0.316228E-04    0.316228E-04    0.316228E-04    0.316228E-04    0.316228E-04    0.316228E-04    0.316228E-04
    0.316228E-04    0.316228E-04    0.316228E-04    0.316228E-04    0.316228E-04    0.316228E-04    0.316228E-04    0.316228E-04    0.316228E-04    0.316228E-04
    0.316228E-04    0.316228E-04    0.316228E-04    0.316228E-04    0.316228E-04    0.316228E-04    0.316228E-04    0.316228E-04    0.316228E-04    0.316228E-04
    0.316228E-04    0.313452E-01    0.310775E-01    0.308565E-01    0.306372E-01    0.302960E-01    0.299397E-01    0.295630E-01    0.294157E-01    0.291700E-01
    0.290091E-01    0.287865E-01    0.287436E-01    0.286770E-01    0.286222E-01    0.285231E-01    0.284072E-01    0.285366E-01    0.285656E-01    0.285473E-01
    0.286680E-01    0.287025E-01    0.289886E-01    0.291438E-01    0.294611E-01    0.299132E-01    0.300995E-01    0.303922E-01    0.305580E-01    0.308457E-01
    0.312476E-01    0.315659E-01    0.570409E-01    0.567998E-01    0.565749E-01    0.560163E-01    0.554710E-01    0.549784E-01    0.544621E-01    0.539465E-01
    0.535248E-01    0.531965E-01    0.529194E-01    0.527388E-01    0.526755E-01    0.525439E-01    0.524879E-01    0.523518E-01    0.522567E-01    0.523124E-01
    0.523477E-01    0.524421E-01    0.526626E-01    0.530084E-01    0.533865E-01    0.537378E-01    0.542390E-01    0.547218E-01    0.553485E-01    0.557789E-01
    0.562645E-01    0.567335E-01    0.570300E-01    0.788186E-01    0.785761E-01    0.782441E-01    0.776366E-01    0.769651E-01    0.764138E-01    0.757950E-01
    0.752107E-01    0.745986E-01    0.740441E-01    0.736242E-01    0.732911E-01    0.730690E-01    0.729354E-01    0.728456E-01    0.727601E-01    0.726288E-01
    0.726397E-01    0.727600E-01    0.728981E-01    0.732560E-01    0.736429E-01    0.740787E-01    0.745544E-01    0.751882E-01    0.758932E-01    0.765546E-01
    0.771866E-01    0.778210E-01    0.782643E-01    0.784972E-01    0.973438E-01    0.971734E-01    0.967511E-01    0.962103E-01    0.954894E-01    0.947987E-01
    0.940341E-01    0.933760E-01    0.927445E-01    0.921103E-01    0.915528E-01    0.911045E-01    0.907493E-01    0.904769E-01    0.903147E-01    0.901926E-01
    0.901172E-01    0.902210E-01    0.905174E-01    0.907941E-01    0.911319E-01    0.915538E-01    0.920342E-01    0.926299E-01    0.933353E-01    0.940644E-01
    0.947646E-01    0.954740E-01    0.962212E-01    0.967806E-01    0.969510E-01    0.113273E+00    0.113107E+00    0.112659E+00    0.112123E+00    0.111384E+00
    0.110594E+00    0.109828E+00    0.109019E+00    0.108367E+00    0.107769E+00    0.107212E+00    0.106717E+00    0.106237E+00    0.105792E+00    0.105490E+00
    0.105364E+00    0.105364E+00    0.105601E+00    0.105955E+00    0.106310E+00    0.106673E+00    0.107140E+00    0.107737E+00    0.108394E+00    0.109063E+00
    0.109805E+00    0.110586E+00    0.111384E+00    0.112104E+00    0.112606E+00    0.112816E+00    0.126904E+00    0.126736E+00    0.126338E+00    0.125791E+00
    0.125115E+00    0.124305E+00    0.123518E+00    0.122695E+00    0.121996E+00    0.121403E+00    0.120781E+00    0.120201E+00    0.119718E+00    0.119300E+00
    0.118960E+00    0.118829E+00    0.118893E+00    0.119155E+00    0.119466E+00    0.119768E+00    0.120205E+00    0.120806E+00    0.121513E+00    0.122170E+00
    0.122856E+00    0.123650E+00    0.124440E+00    0.125170E+00    0.125782E+00    0.126211E+00    0.126461E+00    0.138575E+00    0.138432E+00    0.138018E+00
    0.137491E+00    0.136931E+00    0.136201E+00    0.135419E+00    0.134667E+00    0.133892E+00    0.133193E+00    0.132583E+00    0.131986E+00    0.131494E+00
    0.131117E+00    0.130821E+00    0.130706E+00    0.130785E+00    0.130952E+00    0.131200E+00    0.131554E+00    0.132067E+00    0.132690E+00    0.133419E+00
    0.134178E+00    0.134928E+00    0.135725E+00    0.136476E+00    0.137115E+00    0.137614E+00    0.137976E+00    0.138185E+00    0.148538E+00    0.148403E+00
    0.148037E+00    0.147544E+00    0.147022E+00    0.146366E+00    0.145687E+00    0.144974E+00    0.144208E+00    0.143423E+00    0.142800E+00    0.142252E+00
    0.141756E+00    0.141337E+00    0.141064E+00    0.140966E+00    0.141045E+00    0.141210E+00    0.141495E+00    0.141951E+00    0.142459E+00    0.143045E+00
    0.143764E+00    0.144541E+00    0.145342E+00    0.146111E+00    0.146817E+00    0.147415E+00    0.147905E+00    0.148186E+00    0.148315E+00    0.157172E+00
    0.157029E+00    0.156705E+00    0.156208E+00    0.155606E+00    0.155004E+00    0.154348E+00    0.153669E+00    0.152924E+00    0.152181E+00    0.151465E+00
    0.150904E+00    0.150410E+00    0.150035E+00    0.149803E+00    0.149738E+00    0.149778E+00    0.149992E+00    0.150330E+00    0.150790E+00    0.151276E+00
    0.151900E+00    0.152637E+00    0.153399E+00    0.154184E+00    0.154957E+00    0.155632E+00    0.156190E+00    0.156676E+00    0.157002E+00    0.157134E+00
    0.164557E+00    0.164402E+00    0.164108E+00    0.163633E+00    0.162983E+00    0.162319E+00    0.161623E+00    0.160916E+00    0.160168E+00    0.159434E+00
    0.158739E+00    0.158145E+00    0.157648E+00    0.157289E+00    0.157085E+00    0.157011E+00    0.157069E+00    0.157295E+00    0.157653E+00    0.158043E+00
    0.158552E+00    0.159234E+00    0.160006E+00    0.160826E+00    0.161609E+00    0.162328E+00    0.162966E+00    0.163496E+00    0.163964E+00    0.164308E+00
    0.164480E+00    0.170577E+00    0.170453E+00    0.170138E+00    0.169674E+00    0.169103E+00    0.168365E+00    0.167608E+00    0.166825E+00    0.166073E+00
    0.165331E+00    0.164664E+00    0.164064E+00    0.163578E+00    0.163231E+00    0.163013E+00    0.162945E+00    0.163020E+00    0.163233E+00    0.163534E+00
    0.163936E+00    0.164485E+00    0.165191E+00    0.165970E+00    0.166799E+00    0.167610E+00    0.168333E+00    0.168930E+00    0.169435E+00    0.169812E+00
    0.170096E+00    0.170248E+00    0.175208E+00    0.175124E+00    0.174806E+00    0.174326E+00    0.173739E+00    0.173035E+00    0.172234E+00    0.171428E+00
    0.170679E+00    0.169962E+00    0.169281E+00    0.168673E+00    0.168212E+00    0.167898E+00    0.167672E+00    0.167601E+00    0.167696E+00    0.167897E+00
    0.168158E+00    0.168541E+00    0.169110E+00    0.169783E+00    0.170535E+00    0.171310E+00    0.172100E+00    0.172806E+00    0.173431E+00    0.173952E+00
    0.174308E+00    0.174521E+00    0.174636E+00    0.178556E+00    0.178432E+00    0.178104E+00    0.177628E+00    0.177007E+00    0.176286E+00    0.175503E+00
    0.174720E+00    0.173967E+00    0.173248E+00    0.172615E+00    0.172074E+00    0.171643E+00    0.171271E+00    0.171052E+00    0.170969E+00    0.171045E+00
    0.171253E+00    0.171546E+00    0.171909E+00    0.172382E+00    0.173006E+00    0.173679E+00    0.174398E+00    0.175130E+00    0.175834E+00    0.176490E+00
    0.177047E+00    0.177456E+00    0.177684E+00    0.177804E+00    0.180638E+00    0.180456E+00    0.180135E+00    0.179653E+00    0.179029E+00    0.178270E+00
    0.177502E+00    0.176743E+00    0.175997E+00    0.175324E+00    0.174739E+00    0.174244E+00    0.173818E+00    0.173424E+00    0.173172E+00    0.173048E+00
    0.173093E+00    0.173286E+00    0.173603E+00    0.174018E+00    0.174451E+00    0.174993E+00    0.175605E+00    0.176289E+00    0.176939E+00    0.177614E+00
    0.178244E+00    0.178823E+00    0.179300E+00    0.179569E+00    0.179663E+00    0.181394E+00    0.181202E+00    0.180913E+00    0.180455E+00    0.179801E+00
    0.179052E+00    0.178300E+00    0.177560E+00    0.176854E+00    0.176166E+00    0.175579E+00    0.175070E+00    0.174670E+00    0.174334E+00    0.174050E+00
    0.173899E+00    0.173907E+00    0.174059E+00    0.174358E+00    0.174774E+00    0.175223E+00    0.175749E+00    0.176340E+00    0.176983E+00    0.177623E+00
    0.178254E+00    0.178857E+00    0.179420E+00    0.179921E+00    0.180209E+00    0.180291E+00    0.180814E+00    0.180694E+00    0.180417E+00    0.179969E+00
    0.179361E+00    0.178677E+00    0.177942E+00    0.177174E+00    0.176438E+00    0.175724E+00    0.175076E+00    0.174548E+00    0.174155E+00    0.173865E+00
    0.173614E+00    0.173482E+00    0.173442E+00    0.173558E+00    0.173795E+00    0.174193E+00    0.174653E+00    0.175192E+00    0.175795E+00    0.176416E+00
    0.177105E+00    0.177743E+00    0.178385E+00    0.178969E+00    0.179422E+00    0.179683E+00    0.179805E+00    0.178971E+00    0.178892E+00    0.178607E+00
    0.178184E+00    0.177636E+00    0.176985E+00    0.176214E+00    0.175431E+00    0.174683E+00    0.173970E+00    0.173295E+00    0.172777E+00    0.172352E+00
    0.172011E+00    0.171806E+00    0.171680E+00    0.171637E+00    0.171731E+00    0.171934E+00    0.172312E+00    0.172830E+00    0.173388E+00    0.173998E+00
    0.174660E+00    0.175392E+00    0.176120E+00    0.176795E+00    0.177373E+00    0.177795E+00    0.178081E+00    0.178214E+00    0.175744E+00    0.175672E+00
    0.175425E+00    0.175057E+00    0.174529E+00    0.173877E+00    0.173123E+00    0.172376E+00    0.171657E+00    0.170955E+00    0.170284E+00    0.169753E+00
    0.169298E+00    0.168888E+00    0.168640E+00    0.168523E+00    0.168527E+00    0.168611E+00    0.168829E+00    0.169167E+00    0.169721E+00    0.170333E+00
    0.170997E+00    0.171712E+00    0.172482E+00    0.173253E+00    0.173959E+00    0.174547E+00    0.174990E+00    0.175303E+00    0.175441E+00    0.171179E+00
    0.171098E+00    0.170853E+00    0.170515E+00    0.170007E+00    0.169420E+00    0.168785E+00    0.168042E+00    0.167329E+00    0.166673E+00    0.166030E+00
    0.165439E+00    0.164925E+00    0.164510E+00    0.164192E+00    0.164064E+00    0.164062E+00    0.164105E+00    0.164310E+00    0.164686E+00    0.165243E+00
    0.165907E+00    0.166648E+00    0.167428E+00    0.168239E+00    0.169040E+00    0.169808E+00    0.170437E+00    0.170943E+00    0.171280E+00    0.171459E+00
    0.165338E+00    0.165201E+00    0.164967E+00    0.164639E+00    0.164151E+00    0.163602E+00    0.163041E+00    0.162345E+00    0.161648E+00    0.161033E+00
    0.160407E+00    0.159804E+00    0.159276E+00    0.158834E+00    0.158497E+00    0.158343E+00    0.158284E+00    0.158264E+00    0.158463E+00    0.158858E+00
    0.159403E+00    0.160084E+00    0.160855E+00    0.161705E+00    0.162587E+00    0.163432E+00    0.164233E+00    0.164896E+00    0.165459E+00    0.165852E+00
    0.166046E+00    0.158174E+00    0.158034E+00    0.157800E+00    0.157437E+00    0.156995E+00    0.156419E+00    0.155826E+00    0.155200E+00    0.154563E+00
    0.153984E+00    0.153392E+00    0.152785E+00    0.152283E+00    0.151848E+00    0.151523E+00    0.151334E+00    0.151244E+00    0.151252E+00    0.151408E+00
    0.151750E+00    0.152251E+00    0.152914E+00    0.153690E+00    0.154571E+00    0.155450E+00    0.156337E+00    0.157182E+00    0.157929E+00    0.158505E+00
    0.158934E+00    0.159141E+00    0.149736E+00    0.149644E+00    0.149370E+00    0.148902E+00    0.148409E+00    0.147793E+00    0.147136E+00    0.146531E+00
    0.145958E+00    0.145415E+00    0.144868E+00    0.144329E+00    0.143859E+00    0.143482E+00    0.143160E+00    0.142948E+00    0.142838E+00    0.142879E+00
    0.143015E+00    0.143301E+00    0.143725E+00    0.144395E+00    0.145178E+00    0.146002E+00    0.146864E+00    0.147729E+00    0.148593E+00    0.149400E+00
    0.150027E+00    0.150493E+00    0.150766E+00    0.139862E+00    0.139744E+00    0.139358E+00    0.138793E+00    0.138119E+00    0.137494E+00    0.136860E+00
    0.136265E+00    0.135663E+00    0.135090E+00    0.134599E+00    0.134197E+00    0.133794E+00    0.133509E+00    0.133214E+00    0.132988E+00    0.132821E+00
    0.132890E+00    0.133088E+00    0.133351E+00    0.133734E+00    0.134395E+00    0.135155E+00    0.135933E+00    0.136786E+00    0.137627E+00    0.138434E+00
    0.139214E+00    0.139913E+00    0.140423E+00    0.140698E+00    0.128202E+00    0.127942E+00    0.127461E+00    0.126849E+00    0.126118E+00    0.125495E+00
    0.124884E+00    0.124254E+00    0.123650E+00    0.123065E+00    0.122618E+00    0.122220E+00    0.121895E+00    0.121627E+00    0.121422E+00    0.121283E+00
    0.121150E+00    0.121217E+00    0.121449E+00    0.121739E+00    0.122164E+00    0.122729E+00    0.123451E+00    0.124202E+00    0.124977E+00    0.125790E+00
    0.126569E+00    0.127333E+00    0.128043E+00    0.128555E+00    0.128830E+00    0.114497E+00    0.114184E+00    0.113649E+00    0.112931E+00    0.112188E+00
    0.111613E+00    0.111015E+00    0.110404E+00    0.109875E+00    0.109359E+00    0.108912E+00    0.108496E+00    0.108215E+00    0.107972E+00    0.107807E+00
    0.107725E+00    0.107661E+00    0.107758E+00    0.108001E+00    0.108287E+00    0.108738E+00    0.109301E+00    0.109902E+00    0.110560E+00    0.111234E+00
    0.111999E+00    0.112825E+00    0.113622E+00    0.114285E+00    0.114815E+00    0.115071E+00    0.986152E-01    0.982415E-01    0.976480E-01    0.968952E-01