title = "samples_output/WAVE_TRUE_E0_1"
variables = "x",            "y",            "z","uindex",  "i",  "j",  "k", "obsz","obst","cindex",            "head",           "temp",           "pres",           "satn",           "epot",           "v_abs",           "tsal",      "conc0001"
zone i=   31, j=   31, k=    1, f=point
    10.0000         10.0000         10.0000             3     1     1     1       0       0       0    0.20000000E+02    0.40000000E+02    0.19807057E+00    0.00000000E+00    0.00000000E+00    0.00000000E+00    0.75893435E-02    0.80000000E-02 
    30.0000         10.0000         10.0000             4     2     1     1       0       0       0    0.20000000E+02    0.40000000E+02    0.19807057E+00    0.00000000E+00    0.00000000E+00    0.39571444E-05    0.75893435E-02    0.80000000E-02 
    50.0000         10.0000         10.0000             5     3     1     1       0       0       0    0.20000000E+02    0.40000000E+02    0.19807057E+00    0.00000000E+00    0.00000000E+00    0.61644940E-05    0.75893435E-02    0.80000000E-02 
    70.0000         10.0000         10.0000             6     4     1     1       0       0       0    0.20000000E+02    0.40000000E+02    0.19807057E+00    0.00000000E+00    0.00000000E+00    0.50845261E-05    0.75893435E-02    0.80000000E-02 
    90.0000         10.0000         10.0000             7     5     1     1       0       0       0    0.20000000E+02    0.40000000E+02    0.19807057E+00    0.00000000E+00    0.00000000E+00    0.46892610E-05    0.75893435E-02    0.80000000E-02 
    110.000         10.0000         10.0000             8     6     1     1       0       0       0    0.20000000E+02    0.40000000E+02    0.19807057E+00    0.00000000E+00    0.00000000E+00    0.38676260E-05    0.75893435E-02    0.80000000E-02 
    130.000         10.0000         10.0000             9     7     1     1       0       0       0    0.20000000E+02    0.40000000E+02    0.19807057E+00    0.00000000E+00    0.00000000E+00    0.40678349E-05    0.75893435E-02    0.80000000E-02 
    150.000         10.0000         10.0000            10     8     1     1       0       0       0    0.20000000E+02    0.40000000E+02    0.19807057E+00    0.00000000E+00    0.00000000E+00    0.38594787E-05    0.75893435E-02    0.80000000E-02 
    170.000         10.0000         10.0000            11     9     1     1       0       0       0    0.20000000E+02    0.40000000E+02    0.19807057E+00    0.00000000E+00    0.00000000E+00    0.21521093E-05    0.75893435E-02    0.80000000E-02 
    190.000         10.0000         10.0000            12    10     1     1       0       0       0    0.20000000E+02    0.40000000E+02    0.19807057E+00    0.00000000E+00    0.00000000E+00    0.17433950E-05    0.75893435E-02    0.80000000E-02 
    210.000         10.0000         10.0000            13    11     1     1       0       0       0    0.20000000E+02    0.40000000E+02    0.19807057E+00    0.00000000E+00    0.00000000E+00    0.16427181E-05    0.75893435E-02    0.80000000E-02 
    230.000         10.0000         10.0000            14    12     1     1       0       0       0    0.20000000E+02    0.40000000E+02    0.19807057E+00    0.00000000E+00    0.00000000E+00    0.21491989E-05    0.75893435E-02    0.80000000E-02 
    250.000         10.0000         10.0000            15    13     1     1       0       0       0    0.20000000E+02    0.40000000E+02    0.19807057E+00    0.00000000E+00    0.00000000E+00    0.28930916E-05    0.75893435E-02    0.80000000E-02 
    270.000         10.0000         10.0000            16    14     1     1       0       0       0    0.20000000E+02    0.40000000E+02    0.19807057E+00    0.00000000E+00    0.00000000E+00    0.51612442E-05    0.75893435E-02    0.80000000E-02 
    290.000         10.0000         10.0000            17    15     1     1       0       0       0    0.20000000E+02    0.40000000E+02    0.19807057E+00    0.00000000E+00    0.00000000E+00    0.60545365E-05    0.75893435E-02    0.80000000E-02 
    310.000         10.0000         10.0000            18    16     1     1       0       0       0    0.20000000E+02    0.40000000E+02    0.19807057E+00    0.00000000E+00    0.00000000E+00    0.77364229E-05    0.75893435E-02    0.80000000E-02 
    330.000         10.0000         10.0000            19    17     1     1       0       0       0    0.20000000E+02    0.40000000E+02    0.19807057E+00    0.00000000E+00    0.00000000E+00    0.74917408E-05    0.75893435E-02    0.80000000E-02 
    350.000         10.0000         10.0000            20    18     1     1       0       0       0    0.20000000E+02    0.40000000E+02    0.19807057E+00    0.00000000E+00    0.00000000E+00    0.10181975E-04    0.75893435E-02    0.80000000E-02 
    370.000         10.0000         10.0000            21    19     1     1       0       0       0    0.20000000E+02    0.40000000E+02    0.19807057E+00    0.00000000E+00    0.00000000E+00    0.10716156E-04    0.75893435E-02    0.80000000E-02 
    390.000         10.0000         10.0000            22    20     1     1       0       0       0    0.20000000E+02    0.40000000E+02    0.19807057E+00    0.00000000E+00    0.00000000E+00    0.11771407E-04    0.75893435E-02    0.80000000E-02 
    410.000         10.0000         10.0000            23    21     1     1       0       0       0    0.20000000E+02    0.40000000E+02    0.19807057E+00    0.00000000E+00    0.00000000E+00    0.13234396E-04    0.75893435E-02    0.80000000E-02 
    430.000         10.0000         10.0000            24    22     1     1       0       0       0    0.20000000E+02    0.40000000E+02    0.19807057E+00    0.00000000E+00    0.00000000E+00    0.16639210E-04    0.75893435E-02    0.80000000E-02 
    450.000         10.0000         10.0000            25    23     1     1       0       0       0    0.20000000E+02    0.40000000E+02    0.19807057E+00    0.00000000E+00    0.00000000E+00    0.25060813E-04    0.75893435E-02    0.80000000E-02 
    470.000         10.0000         10.0000            26    24     1     1       0       0       0    0.20000000E+02    0.40000000E+02    0.19807057E+00    0.00000000E+00    0.00000000E+00    0.31218457E-04    0.75893435E-02    0.80000000E-02 
    490.000         10.0000         10.0000            27    25     1     1       0       0       0    0.20000000E+02    0.40000000E+02    0.19807057E+00    0.00000000E+00    0.00000000E+00    0.41863382E-04    0.75893435E-02    0.80000000E-02 
    510.000         10.0000         10.0000            28    26     1     1       0       0       0    0.20000000E+02    0.40000000E+02    0.19807057E+00    0.00000000E+00    0.00000000E+00    0.38474104E-04    0.75893435E-02    0.80000000E-02 
    530.000         10.0000         10.0000            29    27     1     1       0       0       0    0.20000000E+02    0.40000000E+02    0.19807057E+00    0.00000000E+00    0.00000000E+00    0.32917431E-04    0.75893435E-02    0.80000000E-02 
    550.000         10.0000         10.0000            30    28     1     1       0       0       0    0.20000000E+02    0.40000000E+02    0.19807057E+00    0.00000000E+00    0.00000000E+00    0.32258427E-04    0.75893435E-02    0.80000000E-02 
    570.000         10.0000         10.0000            31    29     1     1       0       0       0    0.20000000E+02    0.40000000E+02    0.19807057E+00    0.00000000E+00    0.00000000E+00    0.23235908E-04    0.75893435E-02    0.80000000E-02 
    590.000         10.0000         10.0000            32    30     1     1       0       0       0    0.20000000E+02    0.40000000E+02    0.19807057E+00    0.00000000E+00    0.00000000E+00    0.16489627E-04    0.75893435E-02    0.80000000E-02 
    610.000         10.0000         10.0000            33    31     1     1       0       0       0    0.20000000E+02    0.40000000E+02    0.19807057E+00    0.00000000E+00    0.00000000E+00    0.00000000E+00    0.75893435E-02    0.80000000E-02 
    10.0000         30.0000         10.0000            34     1     2     1       0       0       0    0.20000000E+02    0.40000000E+02    0.19807057E+00    0.00000000E+00    0.00000000E+00    0.55716815E-05    0.56920076E-02    0.60000000E-02 
    30.0000         30.0000         10.0000            35     2     2     1       0       0       0    0.19794934E+02    0.40000000E+02    0.19605947E+00    0.00000000E+00    0.00000000E+00    0.67717892E-05    0.65187063E-02    0.68714311E-02 
    50.0000         30.0000         10.0000            36     3     2     1       0       0       0    0.19661228E+02    0.40000000E+02    0.19474822E+00    0.00000000E+00    0.00000000E+00    0.72259548E-05    0.72131221E-02    0.76034215E-02 
    70.0000         30.0000         10.0000            37     4     2     1       0       0       0    0.19578719E+02    0.40000000E+02    0.19393905E+00    0.00000000E+00    0.00000000E+00    0.56496322E-05    0.74632595E-02    0.78670937E-02 
    90.0000         30.0000         10.0000            38     5     2     1       0       0       0    0.19530803E+02    0.40000000E+02    0.19346913E+00    0.00000000E+00    0.00000000E+00    0.50081307E-05    0.75555314E-02    0.79643584E-02 
    110.000         30.0000         10.0000            39     6     2     1       0       0       0    0.19514734E+02    0.40000000E+02    0.19331154E+00    0.00000000E+00    0.00000000E+00    0.41472547E-05    0.75812011E-02    0.79914171E-02 
    130.000         30.0000         10.0000            40     7     2     1       0       0       0    0.19557556E+02    0.40000000E+02    0.19373149E+00    0.00000000E+00    0.00000000E+00    0.41908340E-05    0.75879212E-02    0.79985007E-02 
    150.000         30.0000         10.0000            41     8     2     1       0       0       0    0.19624899E+02    0.40000000E+02    0.19439193E+00    0.00000000E+00    0.00000000E+00    0.36793224E-05    0.75889990E-02    0.79996369E-02 
    170.000         30.0000         10.0000            42     9     2     1       0       0       0    0.19651791E+02    0.40000000E+02    0.19465566E+00    0.00000000E+00    0.00000000E+00    0.21117729E-05    0.75889304E-02    0.79995646E-02 
    190.000         30.0000         10.0000            43    10     2     1       0       0       0    0.19668843E+02    0.40000000E+02    0.19482289E+00    0.00000000E+00    0.00000000E+00    0.16619834E-05    0.75885655E-02    0.79991799E-02 
    210.000         30.0000         10.0000            44    11     2     1       0       0       0    0.19649509E+02    0.40000000E+02    0.19463328E+00    0.00000000E+00    0.00000000E+00    0.17038656E-05    0.75885282E-02    0.79991406E-02 
    230.000         30.0000         10.0000            45    12     2     1       0       0       0    0.19658534E+02    0.40000000E+02    0.19472179E+00    0.00000000E+00    0.00000000E+00    0.22201135E-05    0.75890318E-02    0.79996714E-02 
    250.000         30.0000         10.0000            46    13     2     1       0       0       0    0.19687540E+02    0.40000000E+02    0.19500626E+00    0.00000000E+00    0.00000000E+00    0.29513726E-05    0.75892722E-02    0.79999249E-02 
    270.000         30.0000         10.0000            47    14     2     1       0       0       0    0.19714096E+02    0.40000000E+02    0.19526669E+00    0.00000000E+00    0.00000000E+00    0.53473962E-05    0.75893346E-02    0.79999907E-02 
    290.000         30.0000         10.0000            48    15     2     1       0       0       0    0.19747761E+02    0.40000000E+02    0.19559685E+00    0.00000000E+00    0.00000000E+00    0.59183676E-05    0.75893419E-02    0.79999984E-02 
    310.000         30.0000         10.0000            49    16     2     1       0       0       0    0.19761361E+02    0.40000000E+02    0.19573023E+00    0.00000000E+00    0.00000000E+00    0.76861231E-05    0.75893432E-02    0.79999997E-02 
    330.000         30.0000         10.0000            50    17     2     1       0       0       0    0.19768840E+02    0.40000000E+02    0.19580358E+00    0.00000000E+00    0.00000000E+00    0.71072086E-05    0.75893434E-02    0.79999999E-02 
    350.000         30.0000         10.0000            51    18     2     1       0       0       0    0.19748130E+02    0.40000000E+02    0.19560046E+00    0.00000000E+00    0.00000000E+00    0.97990603E-05    0.75893434E-02    0.80000000E-02 
    370.000         30.0000         10.0000            52    19     2     1       0       0       0    0.19705373E+02    0.40000000E+02    0.19518115E+00    0.00000000E+00    0.00000000E+00    0.10988006E-04    0.75893434E-02    0.80000000E-02 
    390.000         30.0000         10.0000            53    20     2     1       0       0       0    0.19670726E+02    0.40000000E+02    0.19484136E+00    0.00000000E+00    0.00000000E+00    0.11463260E-04    0.75893433E-02    0.79999998E-02 
    410.000         30.0000         10.0000            54    21     2     1       0       0       0    0.19610546E+02    0.40000000E+02    0.19425117E+00    0.00000000E+00    0.00000000E+00    0.13406385E-04    0.75893418E-02    0.79999983E-02 
    430.000         30.0000         10.0000            55    22     2     1       0       0       0    0.19566803E+02    0.40000000E+02    0.19382218E+00    0.00000000E+00    0.00000000E+00    0.17651181E-04    0.75893320E-02    0.79999880E-02 
    450.000         30.0000         10.0000            56    23     2     1       0       0       0    0.19571256E+02    0.40000000E+02    0.19386585E+00    0.00000000E+00    0.00000000E+00    0.27034816E-04    0.75892885E-02    0.79999420E-02 
    470.000         30.0000         10.0000            57    24     2     1       0       0       0    0.19617798E+02    0.40000000E+02    0.19432229E+00    0.00000000E+00    0.00000000E+00    0.29856103E-04    0.75891374E-02    0.79997828E-02 
    490.000         30.0000         10.0000            58    25     2     1       0       0       0    0.19627331E+02    0.40000000E+02    0.19441578E+00    0.00000000E+00    0.00000000E+00    0.42088314E-04    0.75882514E-02    0.79988488E-02 
    510.000         30.0000         10.0000            59    26     2     1       0       0       0    0.19638626E+02    0.40000000E+02    0.19452656E+00    0.00000000E+00    0.00000000E+00    0.39651754E-04    0.75839063E-02    0.79942686E-02 
    530.000         30.0000         10.0000            60    27     2     1       0       0       0    0.19670777E+02    0.40000000E+02    0.19484186E+00    0.00000000E+00    0.00000000E+00    0.33696831E-04    0.75639564E-02    0.79732392E-02 
    550.000         30.0000         10.0000            61    28     2     1       0       0       0    0.19705377E+02    0.40000000E+02    0.19518119E+00    0.00000000E+00    0.00000000E+00    0.35203029E-04    0.74759626E-02    0.78804842E-02 
    570.000         30.0000         10.0000            62    29     2     1       0       0       0    0.19771530E+02    0.40000000E+02    0.19582996E+00    0.00000000E+00    0.00000000E+00    0.27574586E-04    0.71948318E-02    0.75841415E-02 
    590.000         30.0000         10.0000            63    30     2     1       0       0       0    0.19875053E+02    0.40000000E+02    0.19684521E+00    0.00000000E+00    0.00000000E+00    0.26618680E-04    0.65303088E-02    0.68836614E-02 
    610.000         30.0000         10.0000            64    31     2     1       0       0       0    0.20000000E+02    0.40000000E+02    0.19807057E+00    0.00000000E+00    0.00000000E+00    0.21006534E-04    0.56920076E-02    0.60000000E-02 
    10.0000         50.0000         10.0000            65     1     3     1       0       0       0    0.20000000E+02    0.40000000E+02    0.19807057E+00    0.00000000E+00    0.00000000E+00    0.32386154E-04    0.56920076E-02    0.60000000E-02 
    30.0000         50.0000         10.0000            66     2     3     1       0       0       0    0.19562722E+02    0.40000000E+02    0.19378216E+00    0.00000000E+00    0.00000000E+00    0.18407976E-04    0.59160959E-02    0.62362137E-02 
    50.0000         50.0000         10.0000            67     3     3     1       0       0       0    0.19405581E+02    0.40000000E+02    0.19224107E+00    0.00000000E+00    0.00000000E+00    0.10205433E-04    0.65588584E-02    0.69137557E-02 
    70.0000         50.0000         10.0000            68     4     3     1       0       0       0    0.19308805E+02    0.40000000E+02    0.19129198E+00    0.00000000E+00    0.00000000E+00    0.70493668E-05    0.70900836E-02    0.74737254E-02 
    90.0000         50.0000         10.0000            69     5     3     1       0       0       0    0.19204932E+02    0.40000000E+02    0.19027329E+00    0.00000000E+00    0.00000000E+00    0.60739060E-05    0.73957281E-02    0.77959082E-02 
    110.000         50.0000         10.0000            70     6     3     1       0       0       0    0.19129247E+02    0.40000000E+02    0.18953105E+00    0.00000000E+00    0.00000000E+00    0.50834676E-05    0.75272945E-02    0.79345936E-02 
    130.000         50.0000         10.0000            71     7     3     1       0       0       0    0.19130149E+02    0.40000000E+02    0.18953989E+00    0.00000000E+00    0.00000000E+00    0.45769710E-05    0.75753225E-02    0.79852204E-02 
    150.000         50.0000         10.0000            72     8     3     1       0       0       0    0.19195715E+02    0.40000000E+02    0.19018291E+00    0.00000000E+00    0.00000000E+00    0.32353428E-05    0.75856577E-02    0.79961148E-02 
    170.000         50.0000         10.0000            73     9     3     1       0       0       0    0.19217646E+02    0.40000000E+02    0.19039798E+00    0.00000000E+00    0.00000000E+00    0.20154821E-05    0.75857832E-02    0.79962471E-02 
    190.000         50.0000         10.0000            74    10     3     1       0       0       0    0.19224728E+02    0.40000000E+02    0.19046744E+00    0.00000000E+00    0.00000000E+00    0.15479188E-05    0.75831799E-02    0.79935030E-02 
    210.000         50.0000         10.0000            75    11     3     1       0       0       0    0.19213017E+02    0.40000000E+02    0.19035258E+00    0.00000000E+00    0.00000000E+00    0.18869529E-05    0.75846783E-02    0.79950824E-02 
    230.000         50.0000         10.0000            76    12     3     1       0       0       0    0.19253341E+02    0.40000000E+02    0.19074804E+00    0.00000000E+00    0.00000000E+00    0.25640910E-05    0.75878387E-02    0.79984138E-02 
    250.000         50.0000         10.0000            77    13     3     1       0       0       0    0.19341204E+02    0.40000000E+02    0.19160972E+00    0.00000000E+00    0.00000000E+00    0.31820558E-05    0.75890242E-02    0.79996635E-02 
    270.000         50.0000         10.0000            78    14     3     1       0       0       0    0.19406767E+02    0.40000000E+02    0.19225270E+00    0.00000000E+00    0.00000000E+00    0.52711207E-05    0.75893043E-02    0.79999587E-02 
    290.000         50.0000         10.0000            79    15     3     1       0       0       0    0.19426491E+02    0.40000000E+02    0.19244613E+00    0.00000000E+00    0.00000000E+00    0.58569977E-05    0.75893351E-02    0.79999912E-02 
    310.000         50.0000         10.0000            80    16     3     1       0       0       0    0.19453984E+02    0.40000000E+02    0.19271576E+00    0.00000000E+00    0.00000000E+00    0.75324290E-05    0.75893419E-02    0.79999984E-02 
    330.000         50.0000         10.0000            81    17     3     1       0       0       0    0.19468886E+02    0.40000000E+02    0.19286190E+00    0.00000000E+00    0.00000000E+00    0.61402983E-05    0.75893430E-02    0.79999995E-02 
    350.000         50.0000         10.0000            82    18     3     1       0       0       0    0.19432705E+02    0.40000000E+02    0.19250707E+00    0.00000000E+00    0.00000000E+00    0.92158217E-05    0.75893433E-02    0.79999999E-02 
    370.000         50.0000         10.0000            83    19     3     1       0       0       0    0.19395842E+02    0.40000000E+02    0.19214556E+00    0.00000000E+00    0.00000000E+00    0.10502111E-04    0.75893433E-02    0.79999998E-02 
    390.000         50.0000         10.0000            84    20     3     1       0       0       0    0.19323416E+02    0.40000000E+02    0.19143527E+00    0.00000000E+00    0.00000000E+00    0.11500762E-04    0.75893418E-02    0.79999983E-02 
    410.000         50.0000         10.0000            85    21     3     1       0       0       0    0.19268595E+02    0.40000000E+02    0.19089764E+00    0.00000000E+00    0.00000000E+00    0.13419216E-04    0.75893314E-02    0.79999873E-02 
    430.000         50.0000         10.0000            86    22     3     1       0       0       0    0.19221549E+02    0.40000000E+02    0.19043626E+00    0.00000000E+00    0.00000000E+00    0.20695547E-04    0.75892538E-02    0.79999055E-02 
    450.000         50.0000         10.0000            87    23     3     1       0       0       0    0.19241018E+02    0.40000000E+02    0.19062719E+00    0.00000000E+00    0.00000000E+00    0.29868559E-04    0.75889836E-02    0.79996206E-02 
    470.000         50.0000         10.0000            88    24     3     1       0       0       0    0.19282132E+02    0.40000000E+02    0.19103040E+00    0.00000000E+00    0.00000000E+00    0.29391157E-04    0.75879672E-02    0.79985493E-02 
    490.000         50.0000         10.0000            89    25     3     1       0       0       0    0.19333123E+02    0.40000000E+02    0.19153047E+00    0.00000000E+00    0.00000000E+00    0.40477402E-04    0.75843200E-02    0.79947047E-02 
    510.000         50.0000         10.0000            90    26     3     1       0       0       0    0.19341517E+02    0.40000000E+02    0.19161279E+00    0.00000000E+00    0.00000000E+00    0.42410105E-04    0.75665592E-02    0.79759829E-02 
    530.000         50.0000         10.0000            91    27     3     1       0       0       0    0.19374692E+02    0.40000000E+02    0.19193814E+00    0.00000000E+00    0.00000000E+00    0.36019565E-04    0.75029725E-02    0.79089556E-02 
    550.000         50.0000         10.0000            92    28     3     1       0       0       0    0.19440368E+02    0.40000000E+02    0.19258223E+00    0.00000000E+00    0.00000000E+00    0.37398964E-04    0.73123316E-02    0.77079991E-02 
    570.000         50.0000         10.0000            93    29     3     1       0       0       0    0.19511417E+02    0.40000000E+02    0.19327901E+00    0.00000000E+00    0.00000000E+00    0.33321824E-04    0.67770560E-02    0.71437600E-02 
    590.000         50.0000         10.0000            94    30     3     1       0       0       0    0.19669578E+02    0.40000000E+02    0.19483010E+00    0.00000000E+00    0.00000000E+00    0.51050932E-04    0.60123619E-02    0.63376885E-02 
    610.000         50.0000         10.0000            95    31     3     1       0       0       0    0.20000000E+02    0.40000000E+02    0.19807057E+00    0.00000000E+00    0.00000000E+00    0.10518127E-03    0.56920076E-02    0.60000000E-02 
    10.0000         70.0000         10.0000            96     1     4     1       0       0       0    0.19000000E+02    0.40000000E+02    0.18826351E+00    0.00000000E+00    0.00000000E+00    0.26536266E-04    0.56920076E-02    0.60000000E-02 
    30.0000         70.0000         10.0000            97     2     4     1       0       0       0    0.19116563E+02    0.40000000E+02    0.18940665E+00    0.00000000E+00    0.00000000E+00    0.16657541E-04    0.59834440E-02    0.63072059E-02 
    50.0000         70.0000         10.0000            98     3     4     1       0       0       0    0.19099649E+02    0.40000000E+02    0.18924077E+00    0.00000000E+00    0.00000000E+00    0.98543885E-05    0.64559507E-02    0.68052798E-02 
    70.0000         70.0000         10.0000            99     4     4     1       0       0       0    0.19010455E+02    0.40000000E+02    0.18836605E+00    0.00000000E+00    0.00000000E+00    0.71545644E-05    0.69038987E-02    0.72774661E-02 
    90.0000         70.0000         10.0000           100     5     4     1       0       0       0    0.18895662E+02    0.40000000E+02    0.18724027E+00    0.00000000E+00    0.00000000E+00    0.71111817E-05    0.72532523E-02    0.76457231E-02 
    110.000         70.0000         10.0000           101     6     4     1       0       0       0    0.18836201E+02    0.40000000E+02    0.18665713E+00    0.00000000E+00    0.00000000E+00    0.64327243E-05    0.74565694E-02    0.78600416E-02 
    130.000         70.0000         10.0000           102     7     4     1       0       0       0    0.18832188E+02    0.40000000E+02    0.18661777E+00    0.00000000E+00    0.00000000E+00    0.49594775E-05    0.75475296E-02    0.79559236E-02 
    150.000         70.0000         10.0000           103     8     4     1       0       0       0    0.18838090E+02    0.40000000E+02    0.18667565E+00    0.00000000E+00    0.00000000E+00    0.28077153E-05    0.75733991E-02    0.79831929E-02 
    170.000         70.0000         10.0000           104     9     4     1       0       0       0    0.18800255E+02    0.40000000E+02    0.18630460E+00    0.00000000E+00    0.00000000E+00    0.20106389E-05    0.75750223E-02    0.79849040E-02 
    190.000         70.0000         10.0000           105    10     4     1       0       0       0    0.18760401E+02    0.40000000E+02    0.18591375E+00    0.00000000E+00    0.00000000E+00    0.17114359E-05    0.75681541E-02    0.79776641E-02 
    210.000         70.0000         10.0000           106    11     4     1       0       0       0    0.18808913E+02    0.40000000E+02    0.18638951E+00    0.00000000E+00    0.00000000E+00    0.21586032E-05    0.75763776E-02    0.79863326E-02 
    230.000         70.0000         10.0000           107    12     4     1       0       0       0    0.18874131E+02    0.40000000E+02    0.18702911E+00    0.00000000E+00    0.00000000E+00    0.29146776E-05    0.75853476E-02    0.79957880E-02 
    250.000         70.0000         10.0000           108    13     4     1       0       0       0    0.18958781E+02    0.40000000E+02    0.18785928E+00    0.00000000E+00    0.00000000E+00    0.33051779E-05    0.75883375E-02    0.79989396E-02 
    270.000         70.0000         10.0000           109    14     4     1       0       0       0    0.19047301E+02    0.40000000E+02    0.18872739E+00    0.00000000E+00    0.00000000E+00    0.47436857E-05    0.75891841E-02    0.79998321E-02 
    290.000         70.0000         10.0000           110    15     4     1       0       0       0    0.19065669E+02    0.40000000E+02    0.18890753E+00    0.00000000E+00    0.00000000E+00    0.58416723E-05    0.75893087E-02    0.79999634E-02 
    310.000         70.0000         10.0000           111    16     4     1       0       0       0    0.19068889E+02    0.40000000E+02    0.18893911E+00    0.00000000E+00    0.00000000E+00    0.73922766E-05    0.75893358E-02    0.79999919E-02 
    330.000         70.0000         10.0000           112    17     4     1       0       0       0    0.19069752E+02    0.40000000E+02    0.18894758E+00    0.00000000E+00    0.00000000E+00    0.56469032E-05    0.75893409E-02    0.79999973E-02 
    350.000         70.0000         10.0000           113    18     4     1       0       0       0    0.19083283E+02    0.40000000E+02    0.18908027E+00    0.00000000E+00    0.00000000E+00    0.87062399E-05    0.75893428E-02    0.79999993E-02 
    370.000         70.0000         10.0000           114    19     4     1       0       0       0    0.19066169E+02    0.40000000E+02    0.18891244E+00    0.00000000E+00    0.00000000E+00    0.91660251E-05    0.75893422E-02    0.79999987E-02 
    390.000         70.0000         10.0000           115    20     4     1       0       0       0    0.19024987E+02    0.40000000E+02    0.18850856E+00    0.00000000E+00    0.00000000E+00    0.11235846E-04    0.75893362E-02    0.79999923E-02 
    410.000         70.0000         10.0000           116    21     4     1       0       0       0    0.18979815E+02    0.40000000E+02    0.18806556E+00    0.00000000E+00    0.00000000E+00    0.13612182E-04    0.75892943E-02    0.79999482E-02 
    430.000         70.0000         10.0000           117    22     4     1       0       0       0    0.18964605E+02    0.40000000E+02    0.18791639E+00    0.00000000E+00    0.00000000E+00    0.22349317E-04    0.75890851E-02    0.79997276E-02 
    450.000         70.0000         10.0000           118    23     4     1       0       0       0    0.18946353E+02    0.40000000E+02    0.18773740E+00    0.00000000E+00    0.00000000E+00    0.32790014E-04    0.75880735E-02    0.79986613E-02 
    470.000         70.0000         10.0000           119    24     4     1       0       0       0    0.18965385E+02    0.40000000E+02    0.18792404E+00    0.00000000E+00    0.00000000E+00    0.32605376E-04    0.75846804E-02    0.79950846E-02 
    490.000         70.0000         10.0000           120    25     4     1       0       0       0    0.19025929E+02    0.40000000E+02    0.18851780E+00    0.00000000E+00    0.00000000E+00    0.37793075E-04    0.75751987E-02    0.79850899E-02 
    510.000         70.0000         10.0000           121    26     4     1       0       0       0    0.19062856E+02    0.40000000E+02    0.18887995E+00    0.00000000E+00    0.00000000E+00    0.43817303E-04    0.75411708E-02    0.79492207E-02 
    530.000         70.0000         10.0000           122    27     4     1       0       0       0    0.19090376E+02    0.40000000E+02    0.18914984E+00    0.00000000E+00    0.00000000E+00    0.38776183E-04    0.74374766E-02    0.78399157E-02 
    550.000         70.0000         10.0000           123    28     4     1       0       0       0    0.19139997E+02    0.40000000E+02    0.18963648E+00    0.00000000E+00    0.00000000E+00    0.37056229E-04    0.71951442E-02    0.75844708E-02 