title = "samples_output/WAVE_TRUE_E0_1"
variables = "i",  "j",  "k", "x",            "y",            "z", "uindex",   "obsz","obst","cindex",           "head",           "temp",           "pres",           "satn",           "epot",           "vx",           "vy",           "vz",          "por",           "kx",           "ky",           "kz",           "lx",           "ly",           "lz",         "rhof",         "visf",          "qxc",          "qyc",          "qzc",        "sigma",           "lc",          "src",          "jxc",          "jyc",          "jzc"
zone i=   31, j=   31, k=    1, f=point
     1     1     1    10.0000         10.0000         10.0000              3       0       0       0   0.20000000E+02    0.40000000E+02    0.19807057E+00    0.00000000E+00    0.000000E+00   -0.000000E+00   -0.000000E+00    0.000000E+00    0.200000E-01   -0.100805E+02   -0.100805E+02   -0.100805E+02    0.324192E+01    0.324192E+01    0.324192E+01    0.999700E+03    0.130800E-02   -0.000000E+00   -0.000000E+00    0.000000E+00    0.136200E-02    0.000000E+00    0.800000E-02   -0.000000E+00   -0.000000E+00    0.000000E+00
     2     1     1    30.0000         10.0000         10.0000              4       0       0       0   0.20000000E+02    0.40000000E+02    0.19807057E+00    0.00000000E+00    0.000000E+00   -0.000000E+00    0.395714E-05    0.000000E+00    0.200000E-01   -0.103369E+02   -0.103369E+02   -0.103369E+02    0.324192E+01    0.324192E+01    0.324192E+01    0.999700E+03    0.130800E-02   -0.000000E+00   -0.000000E+00    0.000000E+00    0.136200E-02    0.000000E+00    0.800000E-02   -0.000000E+00   -0.000000E+00    0.000000E+00
     3     1     1    50.0000         10.0000         10.0000              5       0       0       0   0.20000000E+02    0.40000000E+02    0.19807057E+00    0.00000000E+00    0.000000E+00   -0.000000E+00    0.616449E-05    0.000000E+00    0.200000E-01   -0.103966E+02   -0.103966E+02   -0.103966E+02    0.324192E+01    0.324192E+01    0.324192E+01    0.999700E+03    0.130800E-02   -0.000000E+00   -0.000000E+00    0.000000E+00    0.136200E-02    0.000000E+00    0.800000E-02   -0.000000E+00   -0.000000E+00    0.000000E+00
     4     1     1    70.0000         10.0000         10.0000              6       0       0       0   0.20000000E+02    0.40000000E+02    0.19807057E+00    0.00000000E+00    0.000000E+00   -0.000000E+00    0.508453E-05    0.000000E+00    0.200000E-01   -0.106103E+02   -0.106103E+02   -0.106103E+02    0.324192E+01    0.324192E+01    0.324192E+01    0.999700E+03    0.130800E-02   -0.000000E+00   -0.000000E+00    0.000000E+00    0.136200E-02    0.000000E+00    0.800000E-02   -0.000000E+00   -0.000000E+00    0.000000E+00
     5     1     1    90.0000         10.0000         10.0000              7       0       0       0   0.20000000E+02    0.40000000E+02    0.19807057E+00    0.00000000E+00    0.000000E+00   -0.000000E+00    0.468926E-05    0.000000E+00    0.200000E-01   -0.106995E+02   -0.106995E+02   -0.106995E+02    0.324192E+01    0.324192E+01    0.324192E+01    0.999700E+03    0.130800E-02   -0.000000E+00   -0.000000E+00    0.000000E+00    0.136200E-02    0.000000E+00    0.800000E-02   -0.000000E+00   -0.000000E+00    0.000000E+00
     6     1     1    110.000         10.0000         10.0000              8       0       0       0   0.20000000E+02    0.40000000E+02    0.19807057E+00    0.00000000E+00    0.000000E+00   -0.000000E+00    0.386763E-05    0.000000E+00    0.200000E-01   -0.107285E+02   -0.107285E+02   -0.107285E+02    0.324192E+01    0.324192E+01    0.324192E+01    0.999700E+03    0.130800E-02   -0.000000E+00   -0.000000E+00    0.000000E+00    0.136200E-02    0.000000E+00    0.800000E-02   -0.000000E+00   -0.000000E+00    0.000000E+00
     7     1     1    130.000         10.0000         10.0000              9       0       0       0   0.20000000E+02    0.40000000E+02    0.19807057E+00    0.00000000E+00    0.000000E+00   -0.000000E+00    0.406783E-05    0.000000E+00    0.200000E-01   -0.105571E+02   -0.105571E+02   -0.105571E+02    0.324192E+01    0.324192E+01    0.324192E+01    0.999700E+03    0.130800E-02   -0.000000E+00   -0.000000E+00    0.000000E+00    0.136200E-02    0.000000E+00    0.800000E-02   -0.000000E+00   -0.000000E+00    0.000000E+00
     8     1     1    150.000         10.0000         10.0000             10       0       0       0   0.20000000E+02    0.40000000E+02    0.19807057E+00    0.00000000E+00    0.000000E+00   -0.000000E+00    0.385948E-05    0.000000E+00    0.200000E-01   -0.104654E+02   -0.104654E+02   -0.104654E+02    0.324192E+01    0.324192E+01    0.324192E+01    0.999700E+03    0.130800E-02   -0.000000E+00   -0.000000E+00    0.000000E+00    0.136200E-02    0.000000E+00    0.800000E-02   -0.000000E+00   -0.000000E+00    0.000000E+00
     9     1     1    170.000         10.0000         10.0000             11       0       0       0   0.20000000E+02    0.40000000E+02    0.19807057E+00    0.00000000E+00    0.000000E+00   -0.000000E+00    0.215211E-05    0.000000E+00    0.200000E-01   -0.106610E+02   -0.106610E+02   -0.106610E+02    0.324192E+01    0.324192E+01    0.324192E+01    0.999700E+03    0.130800E-02   -0.000000E+00   -0.000000E+00    0.000000E+00    0.136200E-02    0.000000E+00    0.800000E-02   -0.000000E+00   -0.000000E+00    0.000000E+00
    10     1     1    190.000         10.0000         10.0000             12       0       0       0   0.20000000E+02    0.40000000E+02    0.19807057E+00    0.00000000E+00    0.000000E+00   -0.000000E+00    0.174339E-05    0.000000E+00    0.200000E-01   -0.107801E+02   -0.107801E+02   -0.107801E+02    0.324192E+01    0.324192E+01    0.324192E+01    0.999700E+03    0.130800E-02   -0.000000E+00   -0.000000E+00    0.000000E+00    0.136200E-02    0.000000E+00    0.800000E-02   -0.000000E+00   -0.000000E+00    0.000000E+00
    11     1     1    210.000         10.0000         10.0000             13       0       0       0   0.20000000E+02    0.40000000E+02    0.19807057E+00    0.00000000E+00    0.000000E+00   -0.000000E+00    0.164272E-05    0.000000E+00    0.200000E-01   -0.108111E+02   -0.108111E+02   -0.108111E+02    0.324192E+01    0.324192E+01    0.324192E+01    0.999700E+03    0.130800E-02   -0.000000E+00   -0.000000E+00    0.000000E+00    0.136200E-02    0.000000E+00    0.800000E-02   -0.000000E+00   -0.000000E+00    0.000000E+00
    12     1     1    230.000         10.0000         10.0000             14       0       0       0   0.20000000E+02    0.40000000E+02    0.19807057E+00    0.00000000E+00    0.000000E+00   -0.000000E+00    0.214920E-05    0.000000E+00    0.200000E-01   -0.106680E+02   -0.106680E+02   -0.106680E+02    0.324192E+01    0.324192E+01    0.324192E+01    0.999700E+03    0.130800E-02   -0.000000E+00   -0.000000E+00    0.000000E+00    0.136200E-02    0.000000E+00    0.800000E-02   -0.000000E+00   -0.000000E+00    0.000000E+00
    13     1     1    250.000         10.0000         10.0000             15       0       0       0   0.20000000E+02    0.40000000E+02    0.19807057E+00    0.00000000E+00    0.000000E+00   -0.000000E+00    0.289309E-05    0.000000E+00    0.200000E-01   -0.104851E+02   -0.104851E+02   -0.104851E+02    0.324192E+01    0.324192E+01    0.324192E+01    0.999700E+03    0.130800E-02   -0.000000E+00   -0.000000E+00    0.000000E+00    0.136200E-02    0.000000E+00    0.800000E-02   -0.000000E+00   -0.000000E+00    0.000000E+00
    14     1     1    270.000         10.0000         10.0000             16       0       0       0   0.20000000E+02    0.40000000E+02    0.19807057E+00    0.00000000E+00    0.000000E+00   -0.000000E+00    0.516124E-05    0.000000E+00    0.200000E-01   -0.102970E+02   -0.102970E+02   -0.102970E+02    0.324192E+01    0.324192E+01    0.324192E+01    0.999700E+03    0.130800E-02   -0.000000E+00   -0.000000E+00    0.000000E+00    0.136200E-02    0.000000E+00    0.800000E-02   -0.000000E+00   -0.000000E+00    0.000000E+00
    15     1     1    290.000         10.0000         10.0000             17       0       0       0   0.20000000E+02    0.40000000E+02    0.19807057E+00    0.00000000E+00    0.000000E+00   -0.000000E+00    0.605454E-05    0.000000E+00    0.200000E-01   -0.100671E+02   -0.100671E+02   -0.100671E+02    0.324192E+01    0.324192E+01    0.324192E+01    0.999700E+03    0.130800E-02   -0.000000E+00   -0.000000E+00    0.000000E+00    0.136200E-02    0.000000E+00    0.800000E-02   -0.000000E+00   -0.000000E+00    0.000000E+00
    16     1     1    310.000         10.0000         10.0000             18       0       0       0   0.20000000E+02    0.40000000E+02    0.19807057E+00    0.00000000E+00    0.000000E+00   -0.000000E+00    0.773642E-05    0.000000E+00    0.200000E-01   -0.995965E+01   -0.995965E+01   -0.995965E+01    0.324192E+01    0.324192E+01    0.324192E+01    0.999700E+03    0.130800E-02   -0.000000E+00   -0.000000E+00    0.000000E+00    0.136200E-02    0.000000E+00    0.800000E-02   -0.000000E+00   -0.000000E+00    0.000000E+00
    17     1     1    330.000         10.0000         10.0000             19       0       0       0   0.20000000E+02    0.40000000E+02    0.19807057E+00    0.00000000E+00    0.000000E+00   -0.000000E+00    0.749174E-05    0.000000E+00    0.200000E-01   -0.992367E+01   -0.992367E+01   -0.992367E+01    0.324192E+01    0.324192E+01    0.324192E+01    0.999700E+03    0.130800E-02   -0.000000E+00   -0.000000E+00    0.000000E+00    0.136200E-02    0.000000E+00    0.800000E-02   -0.000000E+00   -0.000000E+00    0.000000E+00
    18     1     1    350.000         10.0000         10.0000             20       0       0       0   0.20000000E+02    0.40000000E+02    0.19807057E+00    0.00000000E+00    0.000000E+00   -0.000000E+00    0.101820E-04    0.000000E+00    0.200000E-01   -0.981204E+01   -0.981204E+01   -0.981204E+01    0.324192E+01    0.324192E+01    0.324192E+01    0.999700E+03    0.130800E-02   -0.000000E+00   -0.000000E+00    0.000000E+00    0.136200E-02    0.000000E+00    0.800000E-02   -0.000000E+00   -0.000000E+00    0.000000E+00
    19     1     1    370.000         10.0000         10.0000             21       0       0       0   0.20000000E+02    0.40000000E+02    0.19807057E+00    0.00000000E+00    0.000000E+00   -0.000000E+00    0.107162E-04    0.000000E+00    0.200000E-01   -0.100242E+02   -0.100242E+02   -0.100242E+02    0.324192E+01    0.324192E+01    0.324192E+01    0.999700E+03    0.130800E-02   -0.000000E+00   -0.000000E+00    0.000000E+00    0.136200E-02    0.000000E+00    0.800000E-02   -0.000000E+00   -0.000000E+00    0.000000E+00
    20     1     1    390.000         10.0000         10.0000             22       0       0       0   0.20000000E+02    0.40000000E+02    0.19807057E+00    0.00000000E+00    0.000000E+00   -0.000000E+00    0.117714E-04    0.000000E+00    0.200000E-01   -0.979664E+01   -0.979664E+01   -0.979664E+01    0.324192E+01    0.324192E+01    0.324192E+01    0.999700E+03    0.130800E-02   -0.000000E+00   -0.000000E+00    0.000000E+00    0.136200E-02    0.000000E+00    0.800000E-02   -0.000000E+00   -0.000000E+00    0.000000E+00
    21     1     1    410.000         10.0000         10.0000             23       0       0       0   0.20000000E+02    0.40000000E+02    0.19807057E+00    0.00000000E+00    0.000000E+00   -0.000000E+00    0.132344E-04    0.000000E+00    0.200000E-01   -0.100929E+02   -0.100929E+02   -0.100929E+02    0.324192E+01    0.324192E+01    0.324192E+01    0.999700E+03    0.130800E-02   -0.000000E+00   -0.000000E+00    0.000000E+00    0.136200E-02    0.000000E+00    0.800000E-02   -0.000000E+00   -0.000000E+00    0.000000E+00
    22     1     1    430.000         10.0000         10.0000             24       0       0       0   0.20000000E+02    0.40000000E+02    0.19807057E+00    0.00000000E+00    0.000000E+00   -0.000000E+00    0.166392E-04    0.000000E+00    0.200000E-01   -0.100188E+02   -0.100188E+02   -0.100188E+02    0.324192E+01    0.324192E+01    0.324192E+01    0.999700E+03    0.130800E-02   -0.000000E+00   -0.000000E+00    0.000000E+00    0.136200E-02    0.000000E+00    0.800000E-02   -0.000000E+00   -0.000000E+00    0.000000E+00
    23     1     1    450.000         10.0000         10.0000             25       0       0       0   0.20000000E+02    0.40000000E+02    0.19807057E+00    0.00000000E+00    0.000000E+00   -0.000000E+00    0.250608E-04    0.000000E+00    0.200000E-01   -0.991341E+01   -0.991341E+01   -0.991341E+01    0.324192E+01    0.324192E+01    0.324192E+01    0.999700E+03    0.130800E-02   -0.000000E+00   -0.000000E+00    0.000000E+00    0.136200E-02    0.000000E+00    0.800000E-02   -0.000000E+00   -0.000000E+00    0.000000E+00
    24     1     1    470.000         10.0000         10.0000             26       0       0       0   0.20000000E+02    0.40000000E+02    0.19807057E+00    0.00000000E+00    0.000000E+00   -0.000000E+00    0.312185E-04    0.000000E+00    0.200000E-01   -0.971096E+01   -0.971096E+01   -0.971096E+01    0.324192E+01    0.324192E+01    0.324192E+01    0.999700E+03    0.130800E-02   -0.000000E+00   -0.000000E+00    0.000000E+00    0.136200E-02    0.000000E+00    0.800000E-02   -0.000000E+00   -0.000000E+00    0.000000E+00
    25     1     1    490.000         10.0000         10.0000             27       0       0       0   0.20000000E+02    0.40000000E+02    0.19807057E+00    0.00000000E+00    0.000000E+00   -0.000000E+00    0.418634E-04    0.000000E+00    0.200000E-01   -0.961220E+01   -0.961220E+01   -0.961220E+01    0.324192E+01    0.324192E+01    0.324192E+01    0.999700E+03    0.130800E-02   -0.000000E+00   -0.000000E+00    0.000000E+00    0.136200E-02    0.000000E+00    0.800000E-02   -0.000000E+00   -0.000000E+00    0.000000E+00
    26     1     1    510.000         10.0000         10.0000             28       0       0       0   0.20000000E+02    0.40000000E+02    0.19807057E+00    0.00000000E+00    0.000000E+00   -0.000000E+00    0.384741E-04    0.000000E+00    0.200000E-01   -0.959547E+01   -0.959547E+01   -0.959547E+01    0.324192E+01    0.324192E+01    0.324192E+01    0.999700E+03    0.130800E-02   -0.000000E+00   -0.000000E+00    0.000000E+00    0.136200E-02    0.000000E+00    0.800000E-02   -0.000000E+00   -0.000000E+00    0.000000E+00
    27     1     1    530.000         10.0000         10.0000             29       0       0       0   0.20000000E+02    0.40000000E+02    0.19807057E+00    0.00000000E+00    0.000000E+00   -0.000000E+00    0.329174E-04    0.000000E+00    0.200000E-01   -0.960701E+01   -0.960701E+01   -0.960701E+01    0.324192E+01    0.324192E+01    0.324192E+01    0.999700E+03    0.130800E-02   -0.000000E+00   -0.000000E+00    0.000000E+00    0.136200E-02    0.000000E+00    0.800000E-02   -0.000000E+00   -0.000000E+00    0.000000E+00
    28     1     1    550.000         10.0000         10.0000             30       0       0       0   0.20000000E+02    0.40000000E+02    0.19807057E+00    0.00000000E+00    0.000000E+00   -0.000000E+00    0.322584E-04    0.000000E+00    0.200000E-01   -0.968078E+01   -0.968078E+01   -0.968078E+01    0.324192E+01    0.324192E+01    0.324192E+01    0.999700E+03    0.130800E-02   -0.000000E+00   -0.000000E+00    0.000000E+00    0.136200E-02    0.000000E+00    0.800000E-02   -0.000000E+00   -0.000000E+00    0.000000E+00
    29     1     1    570.000         10.0000         10.0000             31       0       0       0   0.20000000E+02    0.40000000E+02    0.19807057E+00    0.00000000E+00    0.000000E+00   -0.000000E+00    0.232359E-04    0.000000E+00    0.200000E-01   -0.960639E+01   -0.960639E+01   -0.960639E+01    0.324192E+01    0.324192E+01    0.324192E+01    0.999700E+03    0.130800E-02   -0.000000E+00   -0.000000E+00    0.000000E+00    0.136200E-02    0.000000E+00    0.800000E-02   -0.000000E+00   -0.000000E+00    0.000000E+00
    30     1     1    590.000         10.0000         10.0000             32       0       0       0   0.20000000E+02    0.40000000E+02    0.19807057E+00    0.00000000E+00    0.000000E+00   -0.000000E+00    0.164896E-04    0.000000E+00    0.200000E-01   -0.949294E+01   -0.949294E+01   -0.949294E+01    0.324192E+01    0.324192E+01    0.324192E+01    0.999700E+03    0.130800E-02   -0.000000E+00   -0.000000E+00    0.000000E+00    0.136200E-02    0.000000E+00    0.800000E-02   -0.000000E+00   -0.000000E+00    0.000000E+00
    31     1     1    610.000         10.0000         10.0000             33       0       0       0   0.20000000E+02    0.40000000E+02    0.19807057E+00    0.00000000E+00    0.000000E+00   -0.000000E+00   -0.000000E+00    0.000000E+00    0.200000E-01   -0.941637E+01   -0.941637E+01   -0.941637E+01    0.324192E+01    0.324192E+01    0.324192E+01    0.999700E+03    0.130800E-02   -0.000000E+00   -0.000000E+00    0.000000E+00    0.136200E-02    0.000000E+00    0.800000E-02   -0.000000E+00   -0.000000E+00    0.000000E+00
     1     2     1    10.0000         30.0000         10.0000             34       0       0       0   0.20000000E+02    0.40000000E+02    0.19807057E+00    0.00000000E+00    0.000000E+00    0.557168E-05   -0.000000E+00    0.000000E+00    0.200000E-01   -0.100196E+02   -0.100196E+02   -0.100196E+02    0.324192E+01    0.324192E+01    0.324192E+01    0.999700E+03    0.130800E-02   -0.000000E+00   -0.000000E+00    0.000000E+00    0.136200E-02    0.000000E+00    0.600000E-02   -0.000000E+00   -0.000000E+00    0.000000E+00
     2     2     1    30.0000         30.0000         10.0000             35       0       0       0   0.19794934E+02    0.40000000E+02    0.19605947E+00    0.00000000E+00    0.000000E+00    0.428594E-05    0.524288E-05    0.000000E+00    0.200000E-01   -0.102339E+02   -0.102339E+02   -0.102339E+02    0.324192E+01    0.324192E+01    0.324192E+01    0.999700E+03    0.130800E-02   -0.000000E+00   -0.000000E+00    0.000000E+00    0.136200E-02    0.000000E+00   -0.159061E-07   -0.000000E+00   -0.000000E+00    0.000000E+00
     3     2     1    50.0000         30.0000         10.0000             36       0       0       0   0.19661228E+02    0.40000000E+02    0.19474822E+00    0.00000000E+00    0.000000E+00    0.232198E-05    0.684272E-05    0.000000E+00    0.200000E-01   -0.102116E+02   -0.102116E+02   -0.102116E+02    0.324192E+01    0.324192E+01    0.324192E+01    0.999700E+03    0.130800E-02   -0.000000E+00   -0.000000E+00    0.000000E+00    0.136200E-02    0.000000E+00   -0.176005E-07   -0.000000E+00   -0.000000E+00    0.000000E+00
     4     2     1    70.0000         30.0000         10.0000             37       0       0       0   0.19578719E+02    0.40000000E+02    0.19393905E+00    0.00000000E+00    0.000000E+00    0.120966E-05    0.551861E-05    0.000000E+00    0.200000E-01   -0.103295E+02   -0.103295E+02   -0.103295E+02    0.324192E+01    0.324192E+01    0.324192E+01    0.999700E+03    0.130800E-02   -0.000000E+00   -0.000000E+00    0.000000E+00    0.136200E-02    0.000000E+00   -0.182109E-07   -0.000000E+00   -0.000000E+00    0.000000E+00
     5     2     1    90.0000         30.0000         10.0000             38       0       0       0   0.19530803E+02    0.40000000E+02    0.19346913E+00    0.00000000E+00    0.000000E+00    0.479738E-06    0.498510E-05    0.000000E+00    0.200000E-01   -0.103973E+02   -0.103973E+02   -0.103973E+02    0.324192E+01    0.324192E+01    0.324192E+01    0.999700E+03    0.130800E-02   -0.000000E+00   -0.000000E+00    0.000000E+00    0.136200E-02    0.000000E+00   -0.184360E-07   -0.000000E+00   -0.000000E+00    0.000000E+00
     6     2     1    110.000         30.0000         10.0000             39       0       0       0   0.19514734E+02    0.40000000E+02    0.19331154E+00    0.00000000E+00    0.000000E+00   -0.946498E-07    0.414617E-05    0.000000E+00    0.200000E-01   -0.106080E+02   -0.106080E+02   -0.106080E+02    0.324192E+01    0.324192E+01    0.324192E+01    0.999700E+03    0.130800E-02   -0.000000E+00   -0.000000E+00    0.000000E+00    0.136200E-02    0.000000E+00   -0.184986E-07   -0.000000E+00   -0.000000E+00    0.000000E+00
     7     2     1    130.000         30.0000         10.0000             40       0       0       0   0.19557556E+02    0.40000000E+02    0.19373149E+00    0.00000000E+00    0.000000E+00   -0.469783E-06    0.416442E-05    0.000000E+00    0.200000E-01   -0.106578E+02   -0.106578E+02   -0.106578E+02    0.324192E+01    0.324192E+01    0.324192E+01    0.999700E+03    0.130800E-02   -0.000000E+00   -0.000000E+00    0.000000E+00    0.136200E-02    0.000000E+00   -0.185150E-07   -0.000000E+00   -0.000000E+00    0.000000E+00
     8     2     1    150.000         30.0000         10.0000             41       0       0       0   0.19624899E+02    0.40000000E+02    0.19439193E+00    0.00000000E+00    0.000000E+00   -0.367784E-06    0.366089E-05    0.000000E+00    0.200000E-01   -0.106402E+02   -0.106402E+02   -0.106402E+02    0.324192E+01    0.324192E+01    0.324192E+01    0.999700E+03    0.130800E-02   -0.000000E+00   -0.000000E+00    0.000000E+00    0.136200E-02    0.000000E+00   -0.185177E-07   -0.000000E+00   -0.000000E+00    0.000000E+00
     9     2     1    170.000         30.0000         10.0000             42       0       0       0   0.19651791E+02    0.40000000E+02    0.19465566E+00    0.00000000E+00    0.000000E+00   -0.125152E-06    0.210806E-05    0.000000E+00    0.200000E-01   -0.108779E+02   -0.108779E+02   -0.108779E+02    0.324192E+01    0.324192E+01    0.324192E+01    0.999700E+03    0.130800E-02   -0.000000E+00   -0.000000E+00    0.000000E+00    0.136200E-02    0.000000E+00   -0.185175E-07   -0.000000E+00   -0.000000E+00    0.000000E+00
    10     2     1    190.000         30.0000         10.0000             43       0       0       0   0.19668843E+02    0.40000000E+02    0.19482289E+00    0.00000000E+00    0.000000E+00    0.307928E-09    0.166198E-05    0.000000E+00    0.200000E-01   -0.109146E+02   -0.109146E+02   -0.109146E+02    0.324192E+01    0.324192E+01    0.324192E+01    0.999700E+03    0.130800E-02   -0.000000E+00   -0.000000E+00    0.000000E+00    0.136200E-02    0.000000E+00   -0.185165E-07   -0.000000E+00   -0.000000E+00    0.000000E+00
    11     2     1    210.000         30.0000         10.0000             44       0       0       0   0.19649509E+02    0.40000000E+02    0.19463328E+00    0.00000000E+00    0.000000E+00    0.206978E-07    0.170374E-05    0.000000E+00    0.200000E-01   -0.109788E+02   -0.109788E+02   -0.109788E+02    0.324192E+01    0.324192E+01    0.324192E+01    0.999700E+03    0.130800E-02   -0.000000E+00   -0.000000E+00    0.000000E+00    0.136200E-02    0.000000E+00   -0.185165E-07   -0.000000E+00   -0.000000E+00    0.000000E+00
    12     2     1    230.000         30.0000         10.0000             45       0       0       0   0.19658534E+02    0.40000000E+02    0.19472179E+00    0.00000000E+00    0.000000E+00   -0.108582E-06    0.221746E-05    0.000000E+00    0.200000E-01   -0.108607E+02   -0.108607E+02   -0.108607E+02    0.324192E+01    0.324192E+01    0.324192E+01    0.999700E+03    0.130800E-02   -0.000000E+00   -0.000000E+00    0.000000E+00    0.136200E-02    0.000000E+00   -0.185177E-07   -0.000000E+00   -0.000000E+00    0.000000E+00
    13     2     1    250.000         30.0000         10.0000             46       0       0       0   0.19687540E+02    0.40000000E+02    0.19500626E+00    0.00000000E+00    0.000000E+00   -0.226422E-06    0.294267E-05    0.000000E+00    0.200000E-01   -0.107026E+02   -0.107026E+02   -0.107026E+02    0.324192E+01    0.324192E+01    0.324192E+01    0.999700E+03    0.130800E-02   -0.000000E+00   -0.000000E+00    0.000000E+00    0.136200E-02    0.000000E+00   -0.185183E-07   -0.000000E+00   -0.000000E+00    0.000000E+00
    14     2     1    270.000         30.0000         10.0000             47       0       0       0   0.19714096E+02    0.40000000E+02    0.19526669E+00    0.00000000E+00    0.000000E+00   -0.443716E-06    0.532896E-05    0.000000E+00    0.200000E-01   -0.103368E+02   -0.103368E+02   -0.103368E+02    0.324192E+01    0.324192E+01    0.324192E+01    0.999700E+03    0.130800E-02   -0.000000E+00   -0.000000E+00    0.000000E+00    0.136200E-02    0.000000E+00   -0.185185E-07   -0.000000E+00   -0.000000E+00    0.000000E+00
    15     2     1    290.000         30.0000         10.0000             48       0       0       0   0.19747761E+02    0.40000000E+02    0.19559685E+00    0.00000000E+00    0.000000E+00   -0.457545E-06    0.590065E-05    0.000000E+00    0.200000E-01   -0.102915E+02   -0.102915E+02   -0.102915E+02    0.324192E+01    0.324192E+01    0.324192E+01    0.999700E+03    0.130800E-02   -0.000000E+00   -0.000000E+00    0.000000E+00    0.136200E-02    0.000000E+00   -0.185185E-07   -0.000000E+00   -0.000000E+00    0.000000E+00
    16     2     1    310.000         30.0000         10.0000             49       0       0       0   0.19761361E+02    0.40000000E+02    0.19573023E+00    0.00000000E+00    0.000000E+00   -0.249319E-06    0.768208E-05    0.000000E+00    0.200000E-01   -0.101466E+02   -0.101466E+02   -0.101466E+02    0.324192E+01    0.324192E+01    0.324192E+01    0.999700E+03    0.130800E-02   -0.000000E+00   -0.000000E+00    0.000000E+00    0.136200E-02    0.000000E+00   -0.185185E-07   -0.000000E+00   -0.000000E+00    0.000000E+00
    17     2     1    330.000         30.0000         10.0000             50       0       0       0   0.19768840E+02    0.40000000E+02    0.19580358E+00    0.00000000E+00    0.000000E+00    0.192156E-06    0.710461E-05    0.000000E+00    0.200000E-01   -0.101687E+02   -0.101687E+02   -0.101687E+02    0.324192E+01    0.324192E+01    0.324192E+01    0.999700E+03    0.130800E-02   -0.000000E+00   -0.000000E+00    0.000000E+00    0.136200E-02    0.000000E+00   -0.185185E-07   -0.000000E+00   -0.000000E+00    0.000000E+00
    18     2     1    350.000         30.0000         10.0000             51       0       0       0   0.19748130E+02    0.40000000E+02    0.19560046E+00    0.00000000E+00    0.000000E+00    0.101490E-05    0.974636E-05    0.000000E+00    0.200000E-01   -0.100814E+02   -0.100814E+02   -0.100814E+02    0.324192E+01    0.324192E+01    0.324192E+01    0.999700E+03    0.130800E-02   -0.000000E+00   -0.000000E+00    0.000000E+00    0.136200E-02    0.000000E+00   -0.185185E-07   -0.000000E+00   -0.000000E+00    0.000000E+00
    19     2     1    370.000         30.0000         10.0000             52       0       0       0   0.19705373E+02    0.40000000E+02    0.19518115E+00    0.00000000E+00    0.000000E+00    0.125000E-05    0.109167E-04    0.000000E+00    0.200000E-01   -0.100018E+02   -0.100018E+02   -0.100018E+02    0.324192E+01    0.324192E+01    0.324192E+01    0.999700E+03    0.130800E-02   -0.000000E+00   -0.000000E+00    0.000000E+00    0.136200E-02    0.000000E+00   -0.185185E-07   -0.000000E+00   -0.000000E+00    0.000000E+00
    20     2     1    390.000         30.0000         10.0000             53       0       0       0   0.19670726E+02    0.40000000E+02    0.19484136E+00    0.00000000E+00    0.000000E+00    0.144966E-05    0.113712E-04    0.000000E+00    0.200000E-01   -0.101677E+02   -0.101677E+02   -0.101677E+02    0.324192E+01    0.324192E+01    0.324192E+01    0.999700E+03    0.130800E-02   -0.000000E+00   -0.000000E+00    0.000000E+00    0.136200E-02    0.000000E+00   -0.185185E-07   -0.000000E+00   -0.000000E+00    0.000000E+00
    21     2     1    410.000         30.0000         10.0000             54       0       0       0   0.19610546E+02    0.40000000E+02    0.19425117E+00    0.00000000E+00    0.000000E+00    0.179911E-05    0.132851E-04    0.000000E+00    0.200000E-01   -0.998589E+01   -0.998589E+01   -0.998589E+01    0.324192E+01    0.324192E+01    0.324192E+01    0.999700E+03    0.130800E-02   -0.000000E+00   -0.000000E+00    0.000000E+00    0.136200E-02    0.000000E+00   -0.185185E-07   -0.000000E+00   -0.000000E+00    0.000000E+00
    22     2     1    430.000         30.0000         10.0000             55       0       0       0   0.19566803E+02    0.40000000E+02    0.19382218E+00    0.00000000E+00    0.000000E+00    0.752464E-06    0.176351E-04    0.000000E+00    0.200000E-01   -0.995800E+01   -0.995800E+01   -0.995800E+01    0.324192E+01    0.324192E+01    0.324192E+01    0.999700E+03    0.130800E-02   -0.000000E+00   -0.000000E+00    0.000000E+00    0.136200E-02    0.000000E+00   -0.185185E-07   -0.000000E+00   -0.000000E+00    0.000000E+00
    23     2     1    450.000         30.0000         10.0000             56       0       0       0   0.19571256E+02    0.40000000E+02    0.19386585E+00    0.00000000E+00    0.000000E+00   -0.213317E-05    0.269505E-04    0.000000E+00    0.200000E-01   -0.966605E+01   -0.966605E+01   -0.966605E+01    0.324192E+01    0.324192E+01    0.324192E+01    0.999700E+03    0.130800E-02   -0.000000E+00   -0.000000E+00    0.000000E+00    0.136200E-02    0.000000E+00   -0.185184E-07   -0.000000E+00   -0.000000E+00    0.000000E+00
    24     2     1    470.000         30.0000         10.0000             57       0       0       0   0.19617798E+02    0.40000000E+02    0.19432229E+00    0.00000000E+00    0.000000E+00   -0.255132E-05    0.297469E-04    0.000000E+00    0.200000E-01   -0.960632E+01   -0.960632E+01   -0.960632E+01    0.324192E+01    0.324192E+01    0.324192E+01    0.999700E+03    0.130800E-02   -0.000000E+00   -0.000000E+00    0.000000E+00    0.136200E-02    0.000000E+00   -0.185180E-07   -0.000000E+00   -0.000000E+00    0.000000E+00
    25     2     1    490.000         30.0000         10.0000             58       0       0       0   0.19627331E+02    0.40000000E+02    0.19441578E+00    0.00000000E+00    0.000000E+00   -0.128507E-05    0.420687E-04    0.000000E+00    0.200000E-01   -0.941162E+01   -0.941162E+01   -0.941162E+01    0.324192E+01    0.324192E+01    0.324192E+01    0.999700E+03    0.130800E-02   -0.000000E+00   -0.000000E+00    0.000000E+00    0.136200E-02    0.000000E+00   -0.185159E-07   -0.000000E+00   -0.000000E+00    0.000000E+00