# vtk DataFile Version 2.0
Peclet_up_final                                                                                                                                                                                                                                                 
ASCII
DATASET RECTILINEAR_GRID
DIMENSIONS        3      1    200
X_COORDINATES        3 float
    0.500000E+00    0.150000E+01    0.250000E+01
Y_COORDINATES        1 float
    0.500000E+00
Z_COORDINATES      200 float
    0.250000E+01    0.750000E+01    0.125000E+02    0.175000E+02    0.225000E+02    0.275000E+02    0.325000E+02    0.375000E+02    0.425000E+02    0.475000E+02
    0.525000E+02    0.575000E+02    0.625000E+02    0.675000E+02    0.725000E+02    0.775000E+02    0.825000E+02    0.875000E+02    0.925000E+02    0.975000E+02
    0.102500E+03    0.107500E+03    0.112500E+03    0.117500E+03    0.122500E+03    0.127500E+03    0.132500E+03    0.137500E+03    0.142500E+03    0.147500E+03
    0.152500E+03    0.157500E+03    0.162500E+03    0.167500E+03    0.172500E+03    0.177500E+03    0.182500E+03    0.187500E+03    0.192500E+03    0.197500E+03
    0.202500E+03    0.207500E+03    0.212500E+03    0.217500E+03    0.222500E+03    0.227500E+03    0.232500E+03    0.237500E+03    0.242500E+03    0.247500E+03
    0.252500E+03    0.257500E+03    0.262500E+03    0.267500E+03    0.272500E+03    0.277500E+03    0.282500E+03    0.287500E+03    0.292500E+03    0.297500E+03
    0.302500E+03    0.307500E+03    0.312500E+03    0.317500E+03    0.322500E+03    0.327500E+03    0.332500E+03    0.337500E+03    0.342500E+03    0.347500E+03
    0.352500E+03    0.357500E+03    0.362500E+03    0.367500E+03    0.372500E+03    0.377500E+03    0.382500E+03    0.387500E+03    0.392500E+03    0.397500E+03
    0.402500E+03    0.407500E+03    0.412500E+03    0.417500E+03    0.422500E+03    0.427500E+03    0.432500E+03    0.437500E+03    0.442500E+03    0.447500E+03
    0.452500E+03    0.457500E+03    0.462500E+03    0.467500E+03    0.472500E+03    0.477500E+03    0.482500E+03    0.487500E+03    0.492500E+03    0.497500E+03
    0.502500E+03    0.507500E+03    0.512500E+03    0.517500E+03    0.522500E+03    0.527500E+03    0.532500E+03    0.537500E+03    0.542500E+03    0.547500E+03
    0.552500E+03    0.557500E+03    0.562500E+03    0.567500E+03    0.572500E+03    0.577500E+03    0.582500E+03    0.587500E+03    0.592500E+03    0.597500E+03
    0.602500E+03    0.607500E+03    0.612500E+03    0.617500E+03    0.622500E+03    0.627500E+03    0.632500E+03    0.637500E+03    0.642500E+03    0.647500E+03
    0.652500E+03    0.657500E+03    0.662500E+03    0.667500E+03    0.672500E+03    0.677500E+03    0.682500E+03    0.687500E+03    0.692500E+03    0.697500E+03
    0.702500E+03    0.707500E+03    0.712500E+03    0.717500E+03    0.722500E+03    0.727500E+03    0.732500E+03    0.737500E+03    0.742500E+03    0.747500E+03
    0.752500E+03    0.757500E+03    0.762500E+03    0.767500E+03    0.772500E+03    0.777500E+03    0.782500E+03    0.787500E+03    0.792500E+03    0.797500E+03
    0.802500E+03    0.807500E+03    0.812500E+03    0.817500E+03    0.822500E+03    0.827500E+03    0.832500E+03    0.837500E+03    0.842500E+03    0.847500E+03
    0.852500E+03    0.857500E+03    0.862500E+03    0.867500E+03    0.872500E+03    0.877500E+03    0.882500E+03    0.887500E+03    0.892500E+03    0.897500E+03
    0.902500E+03    0.907500E+03    0.912500E+03    0.917500E+03    0.922500E+03    0.927500E+03    0.932500E+03    0.937500E+03    0.942500E+03    0.947500E+03
    0.952500E+03    0.957500E+03    0.962500E+03    0.967500E+03    0.972500E+03    0.977500E+03    0.982500E+03    0.987500E+03    0.992500E+03    0.997500E+03

POINT_DATA     600
SCALARS uindex int 1
LOOKUP_TABLE default
         1         1         1         1         1         1         1         1         1         1         1         1         1         1         1         1         1         1         1         1         1         1         1         1         1
         1         1         1         1         1         1         1         1         1         1         1         1         1         1         1         1         1         1         1         1         1         1         1         1         1
         1         1         1         1         1         1         1         1         1         1         1         1         1         1         1         1         1         1         1         1         1         1         1         1         1
         1         1         1         1         1         1         1         1         1         1         1         1         1         1         1         1         1         1         1         1         1         1         1         1         1
         1         1         1         1         1         1         1         1         1         1         1         1         1         1         1         1         1         1         1         1         1         1         1         1         1
         1         1         1         1         1         1         1         1         1         1         1         1         1         1         1         1         1         1         1         1         1         1         1         1         1
         1         1         1         1         1         1         1         1         1         1         1         1         1         1         1         1         1         1         1         1         1         1         1         1         1
         1         1         1         1         1         1         1         1         1         1         1         1         1         1         1         1         1         1         1         1         1         1         1         1         1
         1         1         1         1         1         1         1         1         1         1         1         1         1         1         1         1         1         1         1         1         1         1         1         1         1
         1         1         1         1         1         1         1         1         1         1         1         1         1         1         1         1         1         1         1         1         1         1         1         1         1
         1         1         1         1         1         1         1         1         1         1         1         1         1         1         1         1         1         1         1         1         1         1         1         1         1
         1         1         1         1         1         1         1         1         1         1         1         1         1         1         1         1         1         1         1         1         1         1         1         1         1
         1         1         1         1         1         1         1         1         1         1         1         1         1         1         1         1         1         1         1         1         1         1         1         1         1
         1         1         1         1         1         1         1         1         1         1         1         1         1         1         1         1         1         1         1         1         1         1         1         1         1
         1         1         1         1         1         1         1         1         1         1         1         1         1         1         1         1         1         1         1         1         1         1         1         1         1
         1         1         1         1         1         1         1         1         1         1         1         1         1         1         1         1         1         1         1         1         1         1         1         1         1
         1         1         1         1         1         1         1         1         1         1         1         1         1         1         1         1         1         1         1         1         1         1         1         1         1
         1         1         1         1         1         1         1         1         1         1         1         1         1         1         1         1         1         1         1         1         1         1         1         1         1
         1         1         1         1         1         1         1         1         1         1         1         1         1         1         1         1         1         1         1         1         1         1         1         1         1
         1         1         1         1         1         1         1         1         1         1         1         1         1         1         1         1         1         1         1         1         1         1         1         1         1
         1         1         1         1         1         1         1         1         1         1         1         1         1         1         1         1         1         1         1         1         1         1         1         1         1
         1         1         1         1         1         1         1         1         1         1         1         1         1         1         1         1         1         1         1         1         1         1         1         1         1
         1         1         1         1         1         1         1         1         1         1         1         1         1         1         1         1         1         1         1         1         1         1         1         1         1
         1         1         1         1         1         1         1         1         1         1         1         1         1         1         1         1         1         1         1         1         1         1         1         1         1
SCALARS por float 1
LOOKUP_TABLE default
    0.100000E-04    0.100000E-04    0.100000E-04    0.100000E-04    0.100000E-04    0.100000E-04    0.100000E-04    0.100000E-04    0.100000E-04    0.100000E-04
    0.100000E-04    0.100000E-04    0.100000E-04    0.100000E-04    0.100000E-04    0.100000E-04    0.100000E-04    0.100000E-04    0.100000E-04    0.100000E-04
    0.100000E-04    0.100000E-04    0.100000E-04    0.100000E-04    0.100000E-04    0.100000E-04    0.100000E-04    0.100000E-04    0.100000E-04    0.100000E-04
    0.100000E-04    0.100000E-04    0.100000E-04    0.100000E-04    0.100000E-04    0.100000E-04    0.100000E-04    0.100000E-04    0.100000E-04    0.100000E-04
    0.100000E-04    0.100000E-04    0.100000E-04    0.100000E-04    0.100000E-04    0.100000E-04    0.100000E-04    0.100000E-04    0.100000E-04    0.100000E-04
    0.100000E-04    0.100000E-04    0.100000E-04    0.100000E-04    0.100000E-04    0.100000E-04    0.100000E-04    0.100000E-04    0.100000E-04    0.100000E-04
    0.100000E-04    0.100000E-04    0.100000E-04    0.100000E-04    0.100000E-04    0.100000E-04    0.100000E-04    0.100000E-04    0.100000E-04    0.100000E-04
    0.100000E-04    0.100000E-04    0.100000E-04    0.100000E-04    0.100000E-04    0.100000E-04    0.100000E-04    0.100000E-04    0.100000E-04    0.100000E-04
    0.100000E-04    0.100000E-04    0.100000E-04    0.100000E-04    0.100000E-04    0.100000E-04    0.100000E-04    0.100000E-04    0.100000E-04    0.100000E-04
    0.100000E-04    0.100000E-04    0.100000E-04    0.100000E-04    0.100000E-04    0.100000E-04    0.100000E-04    0.100000E-04    0.100000E-04    0.100000E-04
    0.100000E-04    0.100000E-04    0.100000E-04    0.100000E-04    0.100000E-04    0.100000E-04    0.100000E-04    0.100000E-04    0.100000E-04    0.100000E-04
    0.100000E-04    0.100000E-04    0.100000E-04    0.100000E-04    0.100000E-04    0.100000E-04    0.100000E-04    0.100000E-04    0.100000E-04    0.100000E-04
    0.100000E-04    0.100000E-04    0.100000E-04    0.100000E-04    0.100000E-04    0.100000E-04    0.100000E-04    0.100000E-04    0.100000E-04    0.100000E-04
    0.100000E-04    0.100000E-04    0.100000E-04    0.100000E-04    0.100000E-04    0.100000E-04    0.100000E-04    0.100000E-04    0.100000E-04    0.100000E-04
    0.100000E-04    0.100000E-04    0.100000E-04    0.100000E-04    0.100000E-04    0.100000E-04    0.100000E-04    0.100000E-04    0.100000E-04    0.100000E-04
    0.100000E-04    0.100000E-04    0.100000E-04    0.100000E-04    0.100000E-04    0.100000E-04    0.100000E-04    0.100000E-04    0.100000E-04    0.100000E-04
    0.100000E-04    0.100000E-04    0.100000E-04    0.100000E-04    0.100000E-04    0.100000E-04    0.100000E-04    0.100000E-04    0.100000E-04    0.100000E-04
    0.100000E-04    0.100000E-04    0.100000E-04    0.100000E-04    0.100000E-04    0.100000E-04    0.100000E-04    0.100000E-04    0.100000E-04    0.100000E-04
    0.100000E-04    0.100000E-04    0.100000E-04    0.100000E-04    0.100000E-04    0.100000E-04    0.100000E-04    0.100000E-04    0.100000E-04    0.100000E-04
    0.100000E-04    0.100000E-04    0.100000E-04    0.100000E-04    0.100000E-04    0.100000E-04    0.100000E-04    0.100000E-04    0.100000E-04    0.100000E-04
    0.100000E-04    0.100000E-04    0.100000E-04    0.100000E-04    0.100000E-04    0.100000E-04    0.100000E-04    0.100000E-04    0.100000E-04    0.100000E-04
    0.100000E-04    0.100000E-04    0.100000E-04    0.100000E-04    0.100000E-04    0.100000E-04    0.100000E-04    0.100000E-04    0.100000E-04    0.100000E-04
    0.100000E-04    0.100000E-04    0.100000E-04    0.100000E-04    0.100000E-04    0.100000E-04    0.100000E-04    0.100000E-04    0.100000E-04    0.100000E-04
    0.100000E-04    0.100000E-04    0.100000E-04    0.100000E-04    0.100000E-04    0.100000E-04    0.100000E-04    0.100000E-04    0.100000E-04    0.100000E-04
    0.100000E-04    0.100000E-04    0.100000E-04    0.100000E-04    0.100000E-04    0.100000E-04    0.100000E-04    0.100000E-04    0.100000E-04    0.100000E-04
    0.100000E-04    0.100000E-04    0.100000E-04    0.100000E-04    0.100000E-04    0.100000E-04    0.100000E-04    0.100000E-04    0.100000E-04    0.100000E-04
    0.100000E-04    0.100000E-04    0.100000E-04    0.100000E-04    0.100000E-04    0.100000E-04    0.100000E-04    0.100000E-04    0.100000E-04    0.100000E-04
    0.100000E-04    0.100000E-04    0.100000E-04    0.100000E-04    0.100000E-04    0.100000E-04    0.100000E-04    0.100000E-04    0.100000E-04    0.100000E-04
    0.100000E-04    0.100000E-04    0.100000E-04    0.100000E-04    0.100000E-04    0.100000E-04    0.100000E-04    0.100000E-04    0.100000E-04    0.100000E-04
    0.100000E-04    0.100000E-04    0.100000E-04    0.100000E-04    0.100000E-04    0.100000E-04    0.100000E-04    0.100000E-04    0.100000E-04    0.100000E-04
    0.100000E-04    0.100000E-04    0.100000E-04    0.100000E-04    0.100000E-04    0.100000E-04    0.100000E-04    0.100000E-04    0.100000E-04    0.100000E-04
    0.100000E-04    0.100000E-04    0.100000E-04    0.100000E-04    0.100000E-04    0.100000E-04    0.100000E-04    0.100000E-04    0.100000E-04    0.100000E-04
    0.100000E-04    0.100000E-04    0.100000E-04    0.100000E-04    0.100000E-04    0.100000E-04    0.100000E-04    0.100000E-04    0.100000E-04    0.100000E-04
    0.100000E-04    0.100000E-04    0.100000E-04    0.100000E-04    0.100000E-04    0.100000E-04    0.100000E-04    0.100000E-04    0.100000E-04    0.100000E-04
    0.100000E-04    0.100000E-04    0.100000E-04    0.100000E-04    0.100000E-04    0.100000E-04    0.100000E-04    0.100000E-04    0.100000E-04    0.100000E-04
    0.100000E-04    0.100000E-04    0.100000E-04    0.100000E-04    0.100000E-04    0.100000E-04    0.100000E-04    0.100000E-04    0.100000E-04    0.100000E-04
    0.100000E-04    0.100000E-04    0.100000E-04    0.100000E-04    0.100000E-04    0.100000E-04    0.100000E-04    0.100000E-04    0.100000E-04    0.100000E-04
    0.100000E-04    0.100000E-04    0.100000E-04    0.100000E-04    0.100000E-04    0.100000E-04    0.100000E-04    0.100000E-04    0.100000E-04    0.100000E-04
    0.100000E-04    0.100000E-04    0.100000E-04    0.100000E-04    0.100000E-04    0.100000E-04    0.100000E-04    0.100000E-04    0.100000E-04    0.100000E-04
    0.100000E-04    0.100000E-04    0.100000E-04    0.100000E-04    0.100000E-04    0.100000E-04    0.100000E-04    0.100000E-04    0.100000E-04    0.100000E-04
    0.100000E-04    0.100000E-04    0.100000E-04    0.100000E-04    0.100000E-04    0.100000E-04    0.100000E-04    0.100000E-04    0.100000E-04    0.100000E-04
    0.100000E-04    0.100000E-04    0.100000E-04    0.100000E-04    0.100000E-04    0.100000E-04    0.100000E-04    0.100000E-04    0.100000E-04    0.100000E-04
    0.100000E-04    0.100000E-04    0.100000E-04    0.100000E-04    0.100000E-04    0.100000E-04    0.100000E-04    0.100000E-04    0.100000E-04    0.100000E-04
    0.100000E-04    0.100000E-04    0.100000E-04    0.100000E-04    0.100000E-04    0.100000E-04    0.100000E-04    0.100000E-04    0.100000E-04    0.100000E-04
    0.100000E-04    0.100000E-04    0.100000E-04    0.100000E-04    0.100000E-04    0.100000E-04    0.100000E-04    0.100000E-04    0.100000E-04    0.100000E-04
    0.100000E-04    0.100000E-04    0.100000E-04    0.100000E-04    0.100000E-04    0.100000E-04    0.100000E-04    0.100000E-04    0.100000E-04    0.100000E-04
    0.100000E-04    0.100000E-04    0.100000E-04    0.100000E-04    0.100000E-04    0.100000E-04    0.100000E-04    0.100000E-04    0.100000E-04    0.100000E-04
    0.100000E-04    0.100000E-04    0.100000E-04    0.100000E-04    0.100000E-04    0.100000E-04    0.100000E-04    0.100000E-04    0.100000E-04    0.100000E-04
    0.100000E-04    0.100000E-04    0.100000E-04    0.100000E-04    0.100000E-04    0.100000E-04    0.100000E-04    0.100000E-04    0.100000E-04    0.100000E-04
    0.100000E-04    0.100000E-04    0.100000E-04    0.100000E-04    0.100000E-04    0.100000E-04    0.100000E-04    0.100000E-04    0.100000E-04    0.100000E-04
    0.100000E-04    0.100000E-04    0.100000E-04    0.100000E-04    0.100000E-04    0.100000E-04    0.100000E-04    0.100000E-04    0.100000E-04    0.100000E-04
    0.100000E-04    0.100000E-04    0.100000E-04    0.100000E-04    0.100000E-04    0.100000E-04    0.100000E-04    0.100000E-04    0.100000E-04    0.100000E-04
    0.100000E-04    0.100000E-04    0.100000E-04    0.100000E-04    0.100000E-04    0.100000E-04    0.100000E-04    0.100000E-04    0.100000E-04    0.100000E-04
    0.100000E-04    0.100000E-04    0.100000E-04    0.100000E-04    0.100000E-04    0.100000E-04    0.100000E-04    0.100000E-04    0.100000E-04    0.100000E-04
    0.100000E-04    0.100000E-04    0.100000E-04    0.100000E-04    0.100000E-04    0.100000E-04    0.100000E-04    0.100000E-04    0.100000E-04    0.100000E-04
    0.100000E-04    0.100000E-04    0.100000E-04    0.100000E-04    0.100000E-04    0.100000E-04    0.100000E-04    0.100000E-04    0.100000E-04    0.100000E-04
    0.100000E-04    0.100000E-04    0.100000E-04    0.100000E-04    0.100000E-04    0.100000E-04    0.100000E-04    0.100000E-04    0.100000E-04    0.100000E-04
    0.100000E-04    0.100000E-04    0.100000E-04    0.100000E-04    0.100000E-04    0.100000E-04    0.100000E-04    0.100000E-04    0.100000E-04    0.100000E-04
    0.100000E-04    0.100000E-04    0.100000E-04    0.100000E-04    0.100000E-04    0.100000E-04    0.100000E-04    0.100000E-04    0.100000E-04    0.100000E-04
    0.100000E-04    0.100000E-04    0.100000E-04    0.100000E-04    0.100000E-04    0.100000E-04    0.100000E-04    0.100000E-04    0.100000E-04    0.100000E-04
SCALARS temp float 1
LOOKUP_TABLE default
    0.300000E+02    0.300000E+02    0.300000E+02    0.299946E+02    0.299946E+02    0.299946E+02    0.299892E+02    0.299892E+02    0.299892E+02    0.299836E+02
    0.299836E+02    0.299836E+02    0.299778E+02    0.299778E+02    0.299778E+02    0.299720E+02    0.299720E+02    0.299720E+02    0.299660E+02    0.299660E+02
    0.299660E+02    0.299598E+02    0.299598E+02    0.299598E+02    0.299536E+02    0.299536E+02    0.299536E+02    0.299472E+02    0.299472E+02    0.299472E+02
    0.299406E+02    0.299406E+02    0.299406E+02    0.299339E+02    0.299339E+02    0.299339E+02    0.299271E+02    0.299271E+02    0.299271E+02    0.299201E+02
    0.299201E+02    0.299201E+02    0.299129E+02    0.299129E+02    0.299129E+02    0.299056E+02    0.299056E+02    0.299056E+02    0.298981E+02    0.298981E+02
    0.298981E+02    0.298904E+02    0.298904E+02    0.298904E+02    0.298826E+02    0.298826E+02    0.298826E+02    0.298746E+02    0.298746E+02    0.298746E+02
    0.298664E+02    0.298664E+02    0.298664E+02    0.298580E+02    0.298580E+02    0.298580E+02    0.298494E+02    0.298494E+02    0.298494E+02    0.298407E+02
    0.298407E+02    0.298407E+02    0.298317E+02    0.298317E+02    0.298317E+02    0.298225E+02    0.298225E+02    0.298225E+02    0.298132E+02    0.298132E+02
    0.298132E+02    0.298036E+02    0.298036E+02    0.298036E+02    0.297938E+02    0.297938E+02    0.297938E+02    0.297838E+02    0.297838E+02    0.297838E+02
    0.297735E+02    0.297735E+02    0.297735E+02    0.297631E+02    0.297631E+02    0.297631E+02    0.297523E+02    0.297523E+02    0.297523E+02    0.297414E+02
    0.297414E+02    0.297414E+02    0.297302E+02    0.297302E+02    0.297302E+02    0.297187E+02    0.297187E+02    0.297187E+02    0.297070E+02    0.297070E+02
    0.297070E+02    0.296950E+02    0.296950E+02    0.296950E+02    0.296828E+02    0.296828E+02    0.296828E+02    0.296703E+02    0.296703E+02    0.296703E+02
    0.296574E+02    0.296574E+02    0.296574E+02    0.296443E+02    0.296443E+02    0.296443E+02    0.296310E+02    0.296310E+02    0.296310E+02    0.296173E+02
    0.296173E+02    0.296173E+02    0.296032E+02    0.296032E+02    0.296032E+02    0.295889E+02    0.295889E+02    0.295889E+02    0.295743E+02    0.295743E+02
    0.295743E+02    0.295593E+02    0.295593E+02    0.295593E+02    0.295440E+02    0.295440E+02    0.295440E+02    0.295283E+02    0.295283E+02    0.295283E+02
    0.295123E+02    0.295123E+02    0.295123E+02    0.294959E+02    0.294959E+02    0.294959E+02    0.294792E+02    0.294792E+02    0.294792E+02    0.294620E+02
    0.294620E+02    0.294620E+02    0.294445E+02    0.294445E+02    0.294445E+02    0.294266E+02    0.294266E+02    0.294266E+02    0.294083E+02    0.294083E+02
    0.294083E+02    0.293896E+02    0.293896E+02    0.293896E+02    0.293704E+02    0.293704E+02    0.293704E+02    0.293508E+02    0.293508E+02    0.293508E+02
    0.293308E+02    0.293308E+02    0.293308E+02    0.293103E+02    0.293103E+02    0.293103E+02    0.292894E+02    0.292894E+02    0.292894E+02    0.292680E+02
    0.292680E+02    0.292680E+02    0.292461E+02    0.292461E+02    0.292461E+02    0.292237E+02    0.292237E+02    0.292237E+02    0.292008E+02    0.292008E+02
    0.292008E+02    0.291774E+02    0.291774E+02    0.291774E+02    0.291534E+02    0.291534E+02    0.291534E+02    0.291289E+02    0.291289E+02    0.291289E+02
    0.291039E+02    0.291039E+02    0.291039E+02    0.290783E+02    0.290783E+02    0.290783E+02    0.290521E+02    0.290521E+02    0.290521E+02    0.290253E+02
    0.290253E+02    0.290253E+02    0.289979E+02    0.289979E+02    0.289979E+02    0.289699E+02    0.289699E+02    0.289699E+02    0.289413E+02    0.289413E+02
    0.289413E+02    0.289120E+02    0.289120E+02    0.289120E+02    0.288821E+02    0.288821E+02    0.288821E+02    0.288515E+02    0.288515E+02    0.288515E+02
    0.288201E+02    0.288201E+02    0.288201E+02    0.287881E+02    0.287881E+02    0.287881E+02    0.287554E+02    0.287554E+02    0.287554E+02    0.287219E+02
    0.287219E+02    0.287219E+02    0.286877E+02    0.286877E+02    0.286877E+02    0.286526E+02    0.286526E+02    0.286526E+02    0.286168E+02    0.286168E+02
    0.286168E+02    0.285802E+02    0.285802E+02    0.285802E+02    0.285428E+02    0.285428E+02    0.285428E+02    0.285045E+02    0.285045E+02    0.285045E+02
    0.284654E+02    0.284654E+02    0.284654E+02    0.284253E+02    0.284253E+02    0.284253E+02    0.283844E+02    0.283844E+02    0.283844E+02    0.283425E+02
    0.283425E+02    0.283425E+02    0.282997E+02    0.282997E+02    0.282997E+02    0.282559E+02    0.282559E+02    0.282559E+02    0.282112E+02    0.282112E+02
    0.282112E+02    0.281654E+02    0.281654E+02    0.281654E+02    0.281186E+02    0.281186E+02    0.281186E+02    0.280707E+02    0.280707E+02    0.280707E+02
    0.280217E+02    0.280217E+02    0.280217E+02    0.279717E+02    0.279717E+02    0.279717E+02    0.279205E+02    0.279205E+02    0.279205E+02    0.278681E+02
    0.278681E+02    0.278681E+02    0.278146E+02    0.278146E+02    0.278146E+02    0.277599E+02    0.277599E+02    0.277599E+02    0.277039E+02    0.277039E+02
    0.277039E+02    0.276467E+02    0.276467E+02    0.276467E+02    0.275881E+02    0.275881E+02    0.275881E+02    0.275283E+02    0.275283E+02    0.275283E+02
    0.274671E+02    0.274671E+02    0.274671E+02    0.274045E+02    0.274045E+02    0.274045E+02    0.273405E+02    0.273405E+02    0.273405E+02    0.272750E+02
    0.272750E+02    0.272750E+02    0.272081E+02    0.272081E+02    0.272081E+02    0.271396E+02    0.271396E+02    0.271396E+02    0.270696E+02    0.270696E+02
    0.270696E+02    0.269981E+02    0.269981E+02    0.269981E+02    0.269249E+02    0.269249E+02    0.269249E+02    0.268500E+02    0.268500E+02    0.268500E+02
    0.267735E+02    0.267735E+02    0.267735E+02    0.266952E+02    0.266952E+02    0.266952E+02    0.266152E+02    0.266152E+02    0.266152E+02    0.265334E+02
    0.265334E+02    0.265334E+02    0.264497E+02    0.264497E+02    0.264497E+02    0.263641E+02    0.263641E+02    0.263641E+02    0.262766E+02    0.262766E+02
    0.262766E+02    0.261871E+02    0.261871E+02    0.261871E+02    0.260956E+02    0.260956E+02    0.260956E+02    0.260020E+02    0.260020E+02    0.260020E+02
    0.259063E+02    0.259063E+02    0.259063E+02    0.258084E+02    0.258084E+02    0.258084E+02    0.257084E+02    0.257084E+02    0.257084E+02    0.256060E+02
    0.256060E+02    0.256060E+02    0.255014E+02    0.255014E+02    0.255014E+02    0.253944E+02    0.253944E+02    0.253944E+02    0.252849E+02    0.252849E+02
    0.252849E+02    0.251730E+02    0.251730E+02    0.251730E+02    0.250586E+02    0.250586E+02    0.250586E+02    0.249416E+02    0.249416E+02    0.249416E+02
    0.248220E+02    0.248220E+02    0.248220E+02    0.246996E+02    0.246996E+02    0.246996E+02    0.245745E+02    0.245745E+02    0.245745E+02    0.244465E+02
    0.244465E+02    0.244465E+02    0.243157E+02    0.243157E+02    0.243157E+02    0.241819E+02    0.241819E+02    0.241819E+02    0.240450E+02    0.240450E+02
    0.240450E+02    0.239051E+02    0.239051E+02    0.239051E+02    0.237621E+02    0.237621E+02    0.237621E+02    0.236157E+02    0.236157E+02    0.236157E+02
    0.234661E+02    0.234661E+02    0.234661E+02    0.233131E+02    0.233131E+02    0.233131E+02    0.231567E+02    0.231567E+02    0.231567E+02    0.229967E+02
    0.229967E+02    0.229967E+02    0.228331E+02    0.228331E+02    0.228331E+02    0.226658E+02    0.226658E+02    0.226658E+02    0.224947E+02    0.224947E+02
    0.224947E+02    0.223198E+02    0.223198E+02    0.223198E+02    0.221409E+02    0.221409E+02    0.221409E+02    0.219579E+02    0.219579E+02    0.219579E+02
    0.217708E+02    0.217708E+02    0.217708E+02    0.215795E+02    0.215795E+02    0.215795E+02    0.213839E+02    0.213839E+02    0.213839E+02    0.211839E+02
    0.211839E+02    0.211839E+02    0.209793E+02    0.209793E+02    0.209793E+02    0.207701E+02    0.207701E+02    0.207701E+02    0.205562E+02    0.205562E+02
    0.205562E+02    0.203374E+02    0.203374E+02    0.203374E+02    0.201138E+02    0.201138E+02    0.201138E+02    0.198850E+02    0.198850E+02    0.198850E+02
    0.196511E+02    0.196511E+02    0.196511E+02    0.194119E+02    0.194119E+02    0.194119E+02    0.191673E+02    0.191673E+02    0.191673E+02    0.189172E+02
    0.189172E+02    0.189172E+02    0.186614E+02    0.186614E+02    0.186614E+02    0.183998E+02    0.183998E+02    0.183998E+02    0.181323E+02    0.181323E+02
    0.181323E+02    0.178588E+02    0.178588E+02    0.178588E+02    0.175791E+02    0.175791E+02    0.175791E+02    0.172931E+02    0.172931E+02    0.172931E+02
    0.170006E+02    0.170006E+02    0.170006E+02    0.167015E+02    0.167015E+02    0.167015E+02    0.163957E+02    0.163957E+02    0.163957E+02    0.160829E+02
    0.160829E+02    0.160829E+02    0.157631E+02    0.157631E+02    0.157631E+02    0.154361E+02    0.154361E+02    0.154361E+02    0.151016E+02    0.151016E+02
    0.151016E+02    0.147596E+02    0.147596E+02    0.147596E+02    0.144099E+02    0.144099E+02    0.144099E+02    0.140523E+02    0.140523E+02    0.140523E+02
    0.136866E+02    0.136866E+02    0.136866E+02    0.133126E+02    0.133126E+02    0.133126E+02    0.129302E+02    0.129302E+02    0.129302E+02    0.125391E+02
    0.125391E+02    0.125391E+02    0.121392E+02    0.121392E+02    0.121392E+02    0.117303E+02    0.117303E+02    0.117303E+02    0.113121E+02    0.113121E+02
    0.113121E+02    0.108845E+02    0.108845E+02    0.108845E+02    0.104472E+02    0.104472E+02    0.104472E+02    0.100000E+02    0.100000E+02    0.100000E+02
SCALARS lx float 1
LOOKUP_TABLE default
    0.299995E+01    0.299995E+01    0.299995E+01    0.299995E+01    0.299995E+01    0.299995E+01    0.299995E+01    0.299995E+01    0.299995E+01    0.299995E+01
    0.299995E+01    0.299995E+01    0.299995E+01    0.299995E+01    0.299995E+01    0.299995E+01    0.299995E+01    0.299995E+01    0.299995E+01    0.299995E+01
    0.299995E+01    0.299995E+01    0.299995E+01    0.299995E+01    0.299995E+01    0.299995E+01    0.299995E+01    0.299995E+01    0.299995E+01    0.299995E+01
    0.299995E+01    0.299995E+01    0.299995E+01    0.299995E+01    0.299995E+01    0.299995E+01    0.299995E+01    0.299995E+01    0.299995E+01    0.299995E+01