# vtk DataFile Version 2.0
assim_variables1000
ASCII

DATASET RECTILINEAR_GRID
DIMENSIONS       32     32      1
X_COORDINATES       32 float
    0.000000E+00    0.200000E+01    0.400000E+01    0.600000E+01    0.800000E+01    0.100000E+02    0.120000E+02    0.140000E+02    0.160000E+02    0.180000E+02
    0.200000E+02    0.220000E+02    0.240000E+02    0.260000E+02    0.280000E+02    0.300000E+02    0.320000E+02    0.340000E+02    0.360000E+02    0.380000E+02
    0.400000E+02    0.420000E+02    0.440000E+02    0.460000E+02    0.480000E+02    0.500000E+02    0.520000E+02    0.540000E+02    0.560000E+02    0.580000E+02
    0.600000E+02
    0.620000E+02
Y_COORDINATES       32 float
    0.000000E+00    0.200000E+01    0.400000E+01    0.600000E+01    0.800000E+01    0.100000E+02    0.120000E+02    0.140000E+02    0.160000E+02    0.180000E+02
    0.200000E+02    0.220000E+02    0.240000E+02    0.260000E+02    0.280000E+02    0.300000E+02    0.320000E+02    0.340000E+02    0.360000E+02    0.380000E+02
    0.400000E+02    0.420000E+02    0.440000E+02    0.460000E+02    0.480000E+02    0.500000E+02    0.520000E+02    0.540000E+02    0.560000E+02    0.580000E+02
    0.600000E+02
    0.620000E+02
Z_COORDINATES        1 float
    0.100000E+01

CELL_DATA     961
SCALARS head_mean                                float 1
LOOKUP_TABLE default:mean
    0.110000E+02    0.110000E+02    0.110000E+02    0.110000E+02    0.110000E+02    0.110000E+02    0.110000E+02    0.110000E+02    0.110000E+02    0.110000E+02
    0.110000E+02    0.110000E+02    0.110000E+02    0.110000E+02    0.110000E+02    0.110000E+02    0.110000E+02    0.110000E+02    0.110000E+02    0.110000E+02
    0.110000E+02    0.110000E+02    0.110000E+02    0.110000E+02    0.110000E+02    0.110000E+02    0.110000E+02    0.110000E+02    0.110000E+02    0.110000E+02
    0.110000E+02    0.109619E+02    0.109620E+02    0.109621E+02    0.109622E+02    0.109623E+02    0.109625E+02    0.109626E+02    0.109626E+02    0.109627E+02
    0.109627E+02    0.109628E+02    0.109628E+02    0.109629E+02    0.109629E+02    0.109630E+02    0.109631E+02    0.109631E+02    0.109631E+02    0.109631E+02
    0.109630E+02    0.109630E+02    0.109630E+02    0.109629E+02    0.109628E+02    0.109627E+02    0.109625E+02    0.109624E+02    0.109623E+02    0.109622E+02
    0.109621E+02    0.109620E+02    0.109255E+02    0.109256E+02    0.109257E+02    0.109259E+02    0.109261E+02    0.109263E+02    0.109264E+02    0.109266E+02
    0.109267E+02    0.109268E+02    0.109270E+02    0.109271E+02    0.109272E+02    0.109273E+02    0.109273E+02    0.109274E+02    0.109275E+02    0.109276E+02
    0.109276E+02    0.109276E+02    0.109275E+02    0.109274E+02    0.109273E+02    0.109272E+02    0.109269E+02    0.109267E+02    0.109265E+02    0.109263E+02
    0.109261E+02    0.109259E+02    0.109258E+02    0.108903E+02    0.108903E+02    0.108904E+02    0.108907E+02    0.108909E+02    0.108910E+02    0.108912E+02
    0.108914E+02    0.108916E+02    0.108919E+02    0.108921E+02    0.108922E+02    0.108924E+02    0.108926E+02    0.108927E+02    0.108928E+02    0.108929E+02
    0.108929E+02    0.108929E+02    0.108929E+02    0.108928E+02    0.108927E+02    0.108925E+02    0.108923E+02    0.108920E+02    0.108918E+02    0.108915E+02
    0.108913E+02    0.108910E+02    0.108908E+02    0.108907E+02    0.108560E+02    0.108560E+02    0.108561E+02    0.108562E+02    0.108565E+02    0.108567E+02
    0.108570E+02    0.108572E+02    0.108574E+02    0.108576E+02    0.108579E+02    0.108581E+02    0.108584E+02    0.108586E+02    0.108587E+02    0.108589E+02
    0.108590E+02    0.108590E+02    0.108589E+02    0.108587E+02    0.108586E+02    0.108585E+02    0.108583E+02    0.108581E+02    0.108578E+02    0.108575E+02
    0.108573E+02    0.108570E+02    0.108568E+02    0.108565E+02    0.108565E+02    0.108223E+02    0.108224E+02    0.108225E+02    0.108226E+02    0.108228E+02
    0.108230E+02    0.108233E+02    0.108235E+02    0.108237E+02    0.108240E+02    0.108243E+02    0.108245E+02    0.108248E+02    0.108250E+02    0.108253E+02
    0.108254E+02    0.108255E+02    0.108254E+02    0.108253E+02    0.108252E+02    0.108251E+02    0.108249E+02    0.108247E+02    0.108245E+02    0.108242E+02
    0.108239E+02    0.108236E+02    0.108234E+02    0.108232E+02    0.108230E+02    0.108229E+02    0.107893E+02    0.107894E+02    0.107895E+02    0.107895E+02
    0.107897E+02    0.107898E+02    0.107900E+02    0.107903E+02    0.107906E+02    0.107908E+02    0.107911E+02    0.107914E+02    0.107917E+02    0.107919E+02
    0.107921E+02    0.107922E+02    0.107922E+02    0.107921E+02    0.107921E+02    0.107920E+02    0.107919E+02    0.107917E+02    0.107915E+02    0.107913E+02
    0.107910E+02    0.107907E+02    0.107905E+02    0.107903E+02    0.107901E+02    0.107899E+02    0.107898E+02    0.107567E+02    0.107567E+02    0.107568E+02
    0.107569E+02    0.107569E+02    0.107571E+02    0.107573E+02    0.107575E+02    0.107578E+02    0.107581E+02    0.107583E+02    0.107586E+02    0.107588E+02
    0.107591E+02    0.107592E+02    0.107593E+02    0.107593E+02    0.107592E+02    0.107591E+02    0.107591E+02    0.107590E+02    0.107588E+02    0.107587E+02
    0.107584E+02    0.107582E+02    0.107580E+02    0.107578E+02    0.107576E+02    0.107574E+02    0.107573E+02    0.107572E+02    0.107245E+02    0.107245E+02
    0.107245E+02    0.107245E+02    0.107246E+02    0.107247E+02    0.107249E+02    0.107251E+02    0.107253E+02    0.107256E+02    0.107258E+02    0.107260E+02
    0.107263E+02    0.107265E+02    0.107266E+02    0.107266E+02    0.107266E+02    0.107265E+02    0.107265E+02    0.107264E+02    0.107263E+02    0.107262E+02
    0.107261E+02    0.107259E+02    0.107257E+02    0.107255E+02    0.107253E+02    0.107251E+02    0.107250E+02    0.107250E+02    0.107249E+02    0.106924E+02
    0.106924E+02    0.106924E+02    0.106924E+02    0.106925E+02    0.106927E+02    0.106928E+02    0.106929E+02    0.106931E+02    0.106933E+02    0.106935E+02
    0.106937E+02    0.106939E+02    0.106940E+02    0.106941E+02    0.106941E+02    0.106941E+02    0.106941E+02    0.106940E+02    0.106940E+02    0.106940E+02
    0.106939E+02    0.106938E+02    0.106936E+02    0.106934E+02    0.106932E+02    0.106931E+02    0.106929E+02    0.106928E+02    0.106928E+02    0.106927E+02
    0.106605E+02    0.106605E+02    0.106605E+02    0.106606E+02    0.106607E+02    0.106608E+02    0.106609E+02    0.106610E+02    0.106611E+02    0.106612E+02
    0.106614E+02    0.106615E+02    0.106617E+02    0.106617E+02    0.106617E+02    0.106617E+02    0.106618E+02    0.106619E+02    0.106619E+02    0.106619E+02
    0.106620E+02    0.106618E+02    0.106617E+02    0.106615E+02    0.106613E+02    0.106612E+02    0.106610E+02    0.106609E+02    0.106608E+02    0.106607E+02
    0.106607E+02    0.106288E+02    0.106288E+02    0.106288E+02    0.106288E+02    0.106289E+02    0.106290E+02    0.106291E+02    0.106292E+02    0.106293E+02
    0.106293E+02    0.106293E+02    0.106294E+02    0.106295E+02    0.106295E+02    0.106295E+02    0.106296E+02    0.106297E+02    0.106298E+02    0.106299E+02
    0.106300E+02    0.106300E+02    0.106299E+02    0.106297E+02    0.106296E+02    0.106294E+02    0.106293E+02    0.106292E+02    0.106291E+02    0.106290E+02
    0.106289E+02    0.106289E+02    0.105972E+02    0.105972E+02    0.105972E+02    0.105972E+02    0.105973E+02    0.105973E+02    0.105974E+02    0.105974E+02
    0.105974E+02    0.105974E+02    0.105975E+02    0.105975E+02    0.105975E+02    0.105975E+02    0.105976E+02    0.105977E+02    0.105978E+02    0.105979E+02
    0.105980E+02    0.105980E+02    0.105980E+02    0.105980E+02    0.105979E+02    0.105978E+02    0.105977E+02    0.105976E+02    0.105975E+02    0.105973E+02
    0.105973E+02    0.105972E+02    0.105973E+02    0.105658E+02    0.105658E+02    0.105658E+02    0.105658E+02    0.105658E+02    0.105658E+02    0.105657E+02
    0.105656E+02    0.105656E+02    0.105656E+02    0.105657E+02    0.105657E+02    0.105656E+02    0.105656E+02    0.105657E+02    0.105658E+02    0.105659E+02
    0.105660E+02    0.105661E+02    0.105661E+02    0.105661E+02    0.105660E+02    0.105661E+02    0.105661E+02    0.105660E+02    0.105659E+02    0.105659E+02
    0.105658E+02    0.105657E+02    0.105657E+02    0.105657E+02    0.105344E+02    0.105345E+02    0.105345E+02    0.105345E+02    0.105344E+02    0.105343E+02
    0.105341E+02    0.105340E+02    0.105340E+02    0.105340E+02    0.105339E+02    0.105339E+02    0.105339E+02    0.105338E+02    0.105339E+02    0.105339E+02
    0.105340E+02    0.105341E+02    0.105342E+02    0.105342E+02    0.105342E+02    0.105342E+02    0.105343E+02    0.105343E+02    0.105343E+02    0.105343E+02
    0.105343E+02    0.105342E+02    0.105342E+02    0.105342E+02    0.105342E+02    0.105030E+02    0.105030E+02    0.105031E+02    0.105030E+02    0.105029E+02
    0.105027E+02    0.105026E+02    0.105024E+02    0.105023E+02    0.105023E+02    0.105023E+02    0.105022E+02    0.105021E+02    0.105021E+02    0.105021E+02
    0.105021E+02    0.105022E+02    0.105023E+02    0.105024E+02    0.105024E+02    0.105024E+02    0.105024E+02    0.105025E+02    0.105026E+02    0.105027E+02
    0.105027E+02    0.105026E+02    0.105026E+02    0.105026E+02    0.105026E+02    0.105026E+02    0.104716E+02    0.104715E+02    0.104715E+02    0.104714E+02
    0.104712E+02    0.104711E+02    0.104709E+02    0.104707E+02    0.104706E+02    0.104706E+02    0.104705E+02    0.104705E+02    0.104705E+02    0.104704E+02
    0.104704E+02    0.104704E+02    0.104704E+02    0.104705E+02    0.104705E+02    0.104706E+02    0.104707E+02    0.104707E+02    0.104708E+02    0.104709E+02
    0.104710E+02    0.104710E+02    0.104710E+02    0.104710E+02    0.104709E+02    0.104709E+02    0.104709E+02    0.104399E+02    0.104399E+02    0.104398E+02
    0.104397E+02    0.104395E+02    0.104393E+02    0.104391E+02    0.104390E+02    0.104388E+02    0.104387E+02    0.104387E+02    0.104387E+02    0.104387E+02
    0.104386E+02    0.104386E+02    0.104385E+02    0.104385E+02    0.104386E+02    0.104386E+02    0.104387E+02    0.104388E+02    0.104389E+02    0.104390E+02
    0.104392E+02    0.104392E+02    0.104393E+02    0.104393E+02    0.104393E+02    0.104392E+02    0.104392E+02    0.104392E+02    0.104079E+02    0.104079E+02
    0.104078E+02    0.104077E+02    0.104075E+02    0.104074E+02    0.104072E+02    0.104071E+02    0.104069E+02    0.104069E+02    0.104068E+02    0.104068E+02
    0.104068E+02    0.104067E+02    0.104066E+02    0.104065E+02    0.104065E+02    0.104065E+02    0.104066E+02    0.104066E+02    0.104068E+02    0.104070E+02
    0.104072E+02    0.104073E+02    0.104074E+02    0.104075E+02    0.104075E+02    0.104075E+02    0.104075E+02    0.104075E+02    0.104076E+02    0.103757E+02
    0.103757E+02    0.103757E+02    0.103755E+02    0.103753E+02    0.103752E+02    0.103751E+02    0.103750E+02    0.103750E+02    0.103749E+02    0.103748E+02
    0.103747E+02    0.103746E+02    0.103745E+02    0.103745E+02    0.103744E+02    0.103744E+02    0.103744E+02    0.103744E+02    0.103745E+02    0.103747E+02
    0.103749E+02    0.103751E+02    0.103752E+02    0.103754E+02    0.103755E+02    0.103756E+02    0.103756E+02    0.103756E+02    0.103757E+02    0.103758E+02
    0.103434E+02    0.103434E+02    0.103433E+02    0.103432E+02    0.103431E+02    0.103429E+02    0.103429E+02    0.103428E+02    0.103428E+02    0.103427E+02
    0.103426E+02    0.103424E+02    0.103423E+02    0.103422E+02    0.103421E+02    0.103421E+02    0.103421E+02    0.103420E+02    0.103420E+02    0.103422E+02
    0.103423E+02    0.103425E+02    0.103427E+02    0.103429E+02    0.103432E+02    0.103434E+02    0.103435E+02    0.103436E+02    0.103437E+02    0.103438E+02
    0.103439E+02    0.103109E+02    0.103109E+02    0.103108E+02    0.103108E+02    0.103107E+02    0.103106E+02    0.103105E+02    0.103105E+02    0.103105E+02
    0.103104E+02    0.103103E+02    0.103101E+02    0.103099E+02    0.103098E+02    0.103097E+02    0.103097E+02    0.103096E+02    0.103096E+02    0.103096E+02
    0.103097E+02    0.103098E+02    0.103100E+02    0.103102E+02    0.103105E+02    0.103108E+02    0.103110E+02    0.103112E+02    0.103114E+02    0.103116E+02
    0.103117E+02    0.103117E+02    0.102784E+02    0.102784E+02    0.102783E+02    0.102783E+02    0.102782E+02    0.102781E+02    0.102780E+02    0.102780E+02
    0.102780E+02    0.102779E+02    0.102777E+02    0.102776E+02    0.102774E+02    0.102773E+02    0.102771E+02    0.102771E+02    0.102771E+02    0.102771E+02
    0.102771E+02    0.102771E+02    0.102773E+02    0.102775E+02    0.102777E+02    0.102779E+02    0.102782E+02    0.102785E+02    0.102787E+02    0.102789E+02
    0.102791E+02    0.102792E+02    0.102793E+02    0.102457E+02    0.102457E+02    0.102456E+02    0.102456E+02    0.102456E+02    0.102455E+02    0.102454E+02
    0.102453E+02    0.102451E+02    0.102450E+02    0.102448E+02    0.102448E+02    0.102446E+02    0.102445E+02    0.102444E+02    0.102443E+02    0.102442E+02
    0.102443E+02    0.102443E+02    0.102444E+02    0.102445E+02    0.102447E+02    0.102449E+02    0.102451E+02    0.102454E+02    0.102457E+02    0.102460E+02
    0.102462E+02    0.102464E+02    0.102465E+02    0.102466E+02    0.102127E+02    0.102127E+02    0.102126E+02    0.102125E+02    0.102125E+02    0.102124E+02
    0.102123E+02    0.102121E+02    0.102119E+02    0.102117E+02    0.102116E+02    0.102115E+02    0.102114E+02    0.102113E+02    0.102113E+02    0.102112E+02
    0.102111E+02    0.102112E+02    0.102113E+02    0.102113E+02    0.102114E+02    0.102116E+02    0.102118E+02    0.102120E+02    0.102123E+02    0.102126E+02
    0.102129E+02    0.102132E+02    0.102134E+02    0.102135E+02    0.102136E+02    0.101794E+02    0.101793E+02    0.101792E+02    0.101791E+02    0.101790E+02
    0.101789E+02    0.101788E+02    0.101786E+02    0.101784E+02    0.101782E+02    0.101780E+02    0.101779E+02    0.101779E+02    0.101778E+02    0.101777E+02
    0.101776E+02    0.101776E+02    0.101777E+02    0.101778E+02    0.101779E+02    0.101780E+02    0.101781E+02    0.101783E+02    0.101785E+02    0.101787E+02
    0.101790E+02    0.101794E+02    0.101797E+02    0.101799E+02    0.101801E+02    0.101802E+02    0.101455E+02    0.101454E+02    0.101453E+02    0.101452E+02
    0.101450E+02    0.101449E+02    0.101447E+02    0.101446E+02    0.101444E+02    0.101443E+02    0.101441E+02    0.101439E+02    0.101438E+02    0.101438E+02
    0.101437E+02    0.101436E+02    0.101436E+02    0.101436E+02    0.101437E+02    0.101439E+02    0.101440E+02    0.101441E+02    0.101443E+02    0.101445E+02
    0.101447E+02    0.101449E+02    0.101452E+02    0.101456E+02    0.101459E+02    0.101461E+02    0.101462E+02    0.101109E+02    0.101109E+02    0.101108E+02
    0.101106E+02    0.101104E+02    0.101103E+02    0.101101E+02    0.101100E+02    0.101098E+02    0.101096E+02    0.101095E+02    0.101094E+02    0.101092E+02
    0.101092E+02    0.101091E+02    0.101090E+02    0.101091E+02    0.101091E+02    0.101092E+02    0.101093E+02    0.101094E+02    0.101095E+02    0.101096E+02
    0.101098E+02    0.101100E+02    0.101102E+02    0.101105E+02    0.101108E+02    0.101111E+02    0.101114E+02    0.101115E+02    0.100754E+02    0.100754E+02
    0.100753E+02    0.100751E+02    0.100750E+02    0.100749E+02    0.100747E+02    0.100746E+02    0.100744E+02    0.100742E+02    0.100741E+02    0.100740E+02
    0.100739E+02    0.100738E+02    0.100738E+02    0.100738E+02    0.100738E+02    0.100739E+02    0.100740E+02    0.100740E+02    0.100741E+02    0.100742E+02
    0.100742E+02    0.100743E+02    0.100745E+02    0.100746E+02    0.100749E+02    0.100753E+02    0.100755E+02    0.100757E+02    0.100758E+02    0.100388E+02
    0.100387E+02    0.100385E+02    0.100385E+02    0.100384E+02    0.100383E+02    0.100382E+02    0.100381E+02    0.100379E+02    0.100378E+02    0.100377E+02
    0.100377E+02    0.100376E+02    0.100376E+02    0.100376E+02    0.100377E+02    0.100377E+02    0.100377E+02    0.100377E+02    0.100378E+02    0.100378E+02
    0.100378E+02    0.100379E+02    0.100379E+02    0.100380E+02    0.100381E+02    0.100383E+02    0.100385E+02    0.100387E+02    0.100388E+02    0.100389E+02
    0.100000E+02    0.100000E+02    0.100000E+02    0.100000E+02    0.100000E+02    0.100000E+02    0.100000E+02    0.100000E+02    0.100000E+02    0.100000E+02
    0.100000E+02    0.100000E+02    0.100000E+02    0.100000E+02    0.100000E+02    0.100000E+02    0.100000E+02    0.100000E+02    0.100000E+02    0.100000E+02
    0.100000E+02    0.100000E+02    0.100000E+02    0.100000E+02    0.100000E+02    0.100000E+02    0.100000E+02    0.100000E+02    0.100000E+02    0.100000E+02
    0.100000E+02
SCALARS head_std                                 float 1
LOOKUP_TABLE default
    0.316228E-04    0.316228E-04    0.316228E-04    0.316228E-04    0.316228E-04    0.316228E-04    0.316228E-04    0.316228E-04    0.316228E-04    0.316228E-04
    0.316228E-04    0.316228E-04    0.316228E-04    0.316228E-04    0.316228E-04    0.316228E-04    0.316228E-04    0.316228E-04    0.316228E-04    0.316228E-04
    0.316228E-04    0.316228E-04    0.316228E-04    0.316228E-04    0.316228E-04    0.316228E-04    0.316228E-04    0.316228E-04    0.316228E-04    0.316228E-04
    0.316228E-04    0.313452E-01    0.310774E-01    0.308564E-01    0.306370E-01    0.302958E-01    0.299395E-01    0.295627E-01    0.294155E-01    0.291698E-01
    0.290090E-01    0.287864E-01    0.287435E-01    0.286770E-01    0.286222E-01    0.285232E-01    0.284073E-01    0.285367E-01    0.285657E-01    0.285474E-01
    0.286681E-01    0.287026E-01    0.289886E-01    0.291438E-01    0.294611E-01    0.299133E-01    0.300996E-01    0.303923E-01    0.305581E-01    0.308458E-01
    0.312477E-01    0.315661E-01    0.570407E-01    0.567996E-01    0.565746E-01    0.560160E-01    0.554706E-01    0.549780E-01    0.544618E-01    0.539461E-01
    0.535246E-01    0.531963E-01    0.529193E-01    0.527388E-01    0.526755E-01    0.525439E-01    0.524880E-01    0.523519E-01    0.522569E-01    0.523126E-01
    0.523479E-01    0.524422E-01    0.526627E-01    0.530085E-01    0.533866E-01    0.537379E-01    0.542391E-01    0.547220E-01    0.553488E-01    0.557791E-01
    0.562648E-01    0.567338E-01    0.570303E-01    0.788185E-01    0.785758E-01    0.782438E-01    0.776363E-01    0.769648E-01    0.764135E-01    0.757947E-01
    0.752104E-01    0.745984E-01    0.740440E-01    0.736242E-01    0.732911E-01    0.730691E-01    0.729355E-01    0.728458E-01    0.727603E-01    0.726291E-01
    0.726400E-01    0.727604E-01    0.728984E-01    0.732563E-01    0.736431E-01    0.740789E-01    0.745546E-01    0.751884E-01    0.758934E-01    0.765548E-01
    0.771869E-01    0.778213E-01    0.782646E-01    0.784975E-01    0.973438E-01    0.971733E-01    0.967510E-01    0.962102E-01    0.954892E-01    0.947986E-01
    0.940340E-01    0.933759E-01    0.927445E-01    0.921105E-01    0.915530E-01    0.911048E-01    0.907496E-01    0.904771E-01    0.903149E-01    0.901929E-01
    0.901175E-01    0.902214E-01    0.905178E-01    0.907945E-01    0.911323E-01    0.915542E-01    0.920346E-01    0.926302E-01    0.933357E-01    0.940647E-01
    0.947648E-01    0.954743E-01    0.962215E-01    0.967808E-01    0.969513E-01    0.113273E+00    0.113107E+00    0.112659E+00    0.112123E+00    0.111384E+00
    0.110594E+00    0.109828E+00    0.109019E+00    0.108367E+00    0.107769E+00    0.107212E+00    0.106718E+00    0.106238E+00    0.105792E+00    0.105491E+00
    0.105364E+00    0.105365E+00    0.105602E+00    0.105956E+00    0.106311E+00    0.106673E+00    0.107141E+00    0.107738E+00    0.108395E+00    0.109064E+00
    0.109806E+00    0.110587E+00    0.111384E+00    0.112104E+00    0.112606E+00    0.112816E+00    0.126904E+00    0.126736E+00    0.126338E+00    0.125791E+00
    0.125116E+00    0.124305E+00    0.123518E+00    0.122695E+00    0.121996E+00    0.121403E+00    0.120782E+00    0.120202E+00    0.119719E+00    0.119300E+00
    0.118961E+00    0.118829E+00    0.118894E+00    0.119156E+00    0.119466E+00    0.119769E+00    0.120206E+00    0.120807E+00    0.121514E+00    0.122171E+00
    0.122857E+00    0.123650E+00    0.124441E+00    0.125171E+00    0.125782E+00    0.126211E+00    0.126462E+00    0.138575E+00    0.138432E+00    0.138018E+00
    0.137491E+00    0.136931E+00    0.136202E+00    0.135419E+00    0.134667E+00    0.133892E+00    0.133193E+00    0.132584E+00    0.131986E+00    0.131495E+00
    0.131118E+00    0.130822E+00    0.130706E+00    0.130786E+00    0.130953E+00    0.131201E+00    0.131555E+00    0.132068E+00    0.132691E+00    0.133420E+00
    0.134179E+00    0.134929E+00    0.135725E+00    0.136477E+00    0.137116E+00    0.137615E+00    0.137976E+00    0.138185E+00    0.148538E+00    0.148404E+00
    0.148037E+00    0.147545E+00    0.147022E+00    0.146366E+00    0.145687E+00    0.144974E+00    0.144209E+00    0.143424E+00    0.142801E+00    0.142254E+00
    0.141757E+00    0.141338E+00    0.141065E+00    0.140967E+00    0.141047E+00    0.141211E+00    0.141496E+00    0.141952E+00    0.142460E+00    0.143046E+00
    0.143765E+00    0.144542E+00    0.145344E+00    0.146112E+00    0.146818E+00    0.147416E+00    0.147906E+00    0.148187E+00    0.148315E+00    0.157172E+00
    0.157030E+00    0.156705E+00    0.156209E+00    0.155607E+00    0.155005E+00    0.154349E+00    0.153670E+00    0.152925E+00    0.152183E+00    0.151466E+00
    0.150906E+00    0.150411E+00    0.150036E+00    0.149805E+00    0.149740E+00    0.149780E+00    0.149994E+00    0.150331E+00    0.150792E+00    0.151277E+00
    0.151901E+00    0.152639E+00    0.153400E+00    0.154186E+00    0.154958E+00    0.155634E+00    0.156191E+00    0.156677E+00    0.157004E+00    0.157135E+00
    0.164557E+00    0.164403E+00    0.164108E+00    0.163634E+00    0.162984E+00    0.162320E+00    0.161624E+00    0.160918E+00    0.160169E+00    0.159436E+00
    0.158741E+00    0.158147E+00    0.157650E+00    0.157291E+00    0.157086E+00    0.157013E+00    0.157071E+00    0.157297E+00    0.157655E+00    0.158044E+00
    0.158554E+00    0.159236E+00    0.160008E+00    0.160828E+00    0.161611E+00    0.162330E+00    0.162968E+00    0.163498E+00    0.163966E+00    0.164310E+00
    0.164482E+00    0.170578E+00    0.170454E+00    0.170139E+00    0.169675E+00    0.169104E+00    0.168367E+00    0.167610E+00    0.166826E+00    0.166075E+00
    0.165333E+00    0.164665E+00    0.164066E+00    0.163580E+00    0.163233E+00    0.163015E+00    0.162947E+00    0.163022E+00    0.163235E+00    0.163536E+00
    0.163938E+00    0.164487E+00    0.165193E+00    0.165972E+00    0.166801E+00    0.167613E+00    0.168336E+00    0.168932E+00    0.169437E+00    0.169814E+00
    0.170098E+00    0.170250E+00    0.175210E+00    0.175126E+00    0.174808E+00    0.174328E+00    0.173741E+00    0.173037E+00    0.172236E+00    0.171430E+00
    0.170681E+00    0.169964E+00    0.169283E+00    0.168675E+00    0.168214E+00    0.167900E+00    0.167674E+00    0.167604E+00    0.167699E+00    0.167899E+00
    0.168161E+00    0.168544E+00    0.169112E+00    0.169785E+00    0.170538E+00    0.171312E+00    0.172103E+00    0.172808E+00    0.173434E+00    0.173954E+00
    0.174310E+00    0.174523E+00    0.174638E+00    0.178558E+00    0.178433E+00    0.178106E+00    0.177630E+00    0.177009E+00    0.176288E+00    0.175506E+00
    0.174722E+00    0.173969E+00    0.173250E+00    0.172617E+00    0.172077E+00    0.171646E+00    0.171273E+00    0.171055E+00    0.170972E+00    0.171047E+00
    0.171255E+00    0.171548E+00    0.171911E+00    0.172385E+00    0.173009E+00    0.173681E+00    0.174400E+00    0.175133E+00    0.175837E+00    0.176492E+00
    0.177050E+00    0.177459E+00    0.177686E+00    0.177806E+00    0.180640E+00    0.180458E+00    0.180137E+00    0.179655E+00    0.179031E+00    0.178273E+00
    0.177504E+00    0.176746E+00    0.175999E+00    0.175326E+00    0.174742E+00    0.174246E+00    0.173820E+00    0.173426E+00    0.173174E+00    0.173050E+00
    0.173096E+00    0.173288E+00    0.173605E+00    0.174021E+00    0.174453E+00    0.174995E+00    0.175607E+00    0.176292E+00    0.176941E+00    0.177617E+00
    0.178247E+00    0.178825E+00    0.179302E+00    0.179572E+00    0.179666E+00    0.181396E+00    0.181204E+00    0.180915E+00    0.180457E+00    0.179803E+00
    0.179054E+00    0.178303E+00    0.177563E+00    0.176856E+00    0.176169E+00    0.175582E+00    0.175072E+00    0.174672E+00    0.174337E+00    0.174053E+00
    0.173901E+00    0.173910E+00    0.174062E+00    0.174360E+00    0.174776E+00    0.175225E+00    0.175752E+00    0.176342E+00    0.176985E+00    0.177625E+00
    0.178256E+00    0.178860E+00    0.179422E+00    0.179923E+00    0.180211E+00    0.180293E+00    0.180816E+00    0.180696E+00    0.180419E+00    0.179972E+00
    0.179363E+00    0.178679E+00    0.177945E+00    0.177177E+00    0.176441E+00    0.175726E+00    0.175079E+00    0.174550E+00    0.174158E+00    0.173868E+00
    0.173617E+00    0.173484E+00    0.173444E+00    0.173560E+00    0.173797E+00    0.174195E+00    0.174655E+00    0.175194E+00    0.175797E+00    0.176418E+00
    0.177107E+00    0.177745E+00    0.178387E+00    0.178971E+00    0.179424E+00    0.179686E+00    0.179807E+00    0.178973E+00    0.178894E+00    0.178609E+00
    0.178186E+00    0.177638E+00    0.176987E+00    0.176216E+00    0.175434E+00    0.174686E+00    0.173972E+00    0.173297E+00    0.172780E+00    0.172355E+00
    0.172014E+00    0.171808E+00    0.171683E+00    0.171639E+00    0.171733E+00    0.171937E+00    0.172314E+00    0.172832E+00    0.173390E+00    0.174000E+00
    0.174661E+00    0.175394E+00    0.176121E+00    0.176797E+00    0.177375E+00    0.177797E+00    0.178083E+00    0.178216E+00    0.175746E+00    0.175674E+00
    0.175427E+00    0.175059E+00    0.174531E+00    0.173879E+00    0.173125E+00    0.172379E+00    0.171659E+00    0.170957E+00    0.170286E+00    0.169755E+00
    0.169300E+00    0.168890E+00    0.168643E+00    0.168525E+00    0.168530E+00    0.168613E+00    0.168831E+00    0.169169E+00    0.169723E+00    0.170335E+00
    0.170999E+00    0.171714E+00    0.172484E+00    0.173255E+00    0.173960E+00    0.174549E+00    0.174992E+00    0.175305E+00    0.175442E+00    0.171181E+00
    0.171100E+00    0.170855E+00    0.170518E+00    0.170010E+00    0.169423E+00    0.168788E+00    0.168045E+00    0.167331E+00    0.166676E+00    0.166032E+00
    0.165441E+00    0.164927E+00    0.164512E+00    0.164194E+00    0.164066E+00    0.164064E+00    0.164107E+00    0.164312E+00    0.164688E+00    0.165245E+00
    0.165909E+00    0.166650E+00    0.167430E+00    0.168241E+00    0.169041E+00    0.169809E+00    0.170439E+00    0.170944E+00    0.171282E+00    0.171461E+00
    0.165340E+00    0.165203E+00    0.164969E+00    0.164641E+00    0.164153E+00    0.163604E+00    0.163044E+00    0.162347E+00    0.161650E+00    0.161035E+00
    0.160409E+00    0.159806E+00    0.159278E+00    0.158836E+00    0.158499E+00    0.158345E+00    0.158286E+00    0.158266E+00    0.158465E+00    0.158860E+00
    0.159405E+00    0.160086E+00    0.160857E+00    0.161707E+00    0.162589E+00    0.163434E+00    0.164235E+00    0.164898E+00    0.165461E+00    0.165853E+00
    0.166047E+00    0.158176E+00    0.158036E+00    0.157802E+00    0.157439E+00    0.156997E+00    0.156421E+00    0.155828E+00    0.155201E+00    0.154565E+00
    0.153986E+00    0.153394E+00    0.152787E+00    0.152285E+00    0.151850E+00    0.151525E+00    0.151336E+00    0.151246E+00    0.151254E+00    0.151410E+00
    0.151752E+00    0.152253E+00    0.152916E+00    0.153692E+00    0.154574E+00    0.155452E+00    0.156339E+00    0.157183E+00    0.157931E+00    0.158507E+00
    0.158936E+00    0.159143E+00    0.149739E+00    0.149646E+00    0.149372E+00    0.148904E+00    0.148410E+00    0.147794E+00    0.147137E+00    0.146532E+00
    0.145960E+00    0.145417E+00    0.144869E+00    0.144330E+00    0.143861E+00    0.143484E+00    0.143162E+00    0.142950E+00    0.142840E+00    0.142881E+00
    0.143017E+00    0.143303E+00    0.143727E+00    0.144397E+00    0.145180E+00    0.146003E+00    0.146865E+00    0.147731E+00    0.148594E+00    0.149401E+00
    0.150028E+00    0.150495E+00    0.150768E+00    0.139863E+00    0.139746E+00    0.139360E+00    0.138795E+00    0.138121E+00    0.137496E+00    0.136862E+00
    0.136266E+00    0.135664E+00    0.135091E+00    0.134601E+00    0.134199E+00    0.133796E+00    0.133510E+00    0.133216E+00    0.132989E+00    0.132823E+00
    0.132891E+00    0.133089E+00    0.133353E+00    0.133736E+00    0.134396E+00    0.135157E+00    0.135934E+00    0.136787E+00    0.137629E+00    0.138436E+00
    0.139216E+00    0.139915E+00    0.140424E+00    0.140700E+00    0.128203E+00    0.127944E+00    0.127463E+00    0.126851E+00    0.126120E+00    0.125497E+00
    0.124885E+00    0.124255E+00    0.123652E+00    0.123067E+00    0.122619E+00    0.122222E+00    0.121896E+00    0.121629E+00    0.121423E+00    0.121284E+00
    0.121152E+00    0.121218E+00    0.121451E+00    0.121740E+00    0.122165E+00    0.122731E+00    0.123452E+00    0.124203E+00    0.124979E+00    0.125791E+00
    0.126571E+00    0.127334E+00    0.128044E+00    0.128557E+00    0.128832E+00    0.114498E+00    0.114185E+00    0.113651E+00    0.112932E+00    0.112190E+00
    0.111614E+00    0.111017E+00    0.110405E+00    0.109876E+00    0.109360E+00    0.108913E+00    0.108497E+00    0.108217E+00    0.107974E+00    0.107809E+00
    0.107726E+00    0.107662E+00    0.107759E+00    0.108002E+00    0.108288E+00    0.108739E+00    0.109302E+00    0.109903E+00    0.110561E+00    0.111235E+00
    0.112000E+00    0.112827E+00    0.113623E+00    0.114286E+00    0.114817E+00    0.115073E+00    0.986163E-01    0.982425E-01    0.976491E-01    0.968962E-01