 TITLE = "Eigenvalues of C"
 VARIABLES = "obs" "eigenvalues"
 ZONE  F=POINT, I=    2 J=1 K=1
  1  0.50000    
  2  0.49997    
