title = "samples_output/WAVEREAL_TRUE_E0_1"
variables = "x",            "y",            "z","uindex",  "i",  "j",  "k", "obsz","obst","cindex",            "head",           "temp",           "pres",           "satn",           "epot",           "v_abs",           "tsal",      "conc0001"
zone i=   31, j=   31, k=    1, f=point
    1.00000         1.00000         1.00000             3     1     1     1       0       0       0    0.11000000E+02    0.10000000E+02    0.19807057E+00    0.00000000E+00    0.00000000E+00    0.16774068E-06    0.80000000E-01    0.80000000E-01 
    3.00000         1.00000         1.00000             4     2     1     1       0       0       0    0.11000000E+02    0.10000000E+02    0.19807057E+00    0.00000000E+00    0.00000000E+00    0.10255282E-06    0.80000000E-01    0.80000000E-01 
    5.00000         1.00000         1.00000             5     3     1     1       0       0       0    0.11000000E+02    0.10000000E+02    0.19807057E+00    0.00000000E+00    0.00000000E+00    0.10029102E-06    0.80000000E-01    0.80000000E-01 
    7.00000         1.00000         1.00000             6     4     1     1       0       0       0    0.11000000E+02    0.10000000E+02    0.19807057E+00    0.00000000E+00    0.00000000E+00    0.68980115E-07    0.80000000E-01    0.80000000E-01 
    9.00000         1.00000         1.00000             7     5     1     1       0       0       0    0.11000000E+02    0.10000000E+02    0.19807057E+00    0.00000000E+00    0.00000000E+00    0.57289632E-07    0.80000000E-01    0.80000000E-01 
    11.0000         1.00000         1.00000             8     6     1     1       0       0       0    0.11000000E+02    0.10000000E+02    0.19807057E+00    0.00000000E+00    0.00000000E+00    0.44258456E-07    0.80000000E-01    0.80000000E-01 
    13.0000         1.00000         1.00000             9     7     1     1       0       0       0    0.11000000E+02    0.10000000E+02    0.19807057E+00    0.00000000E+00    0.00000000E+00    0.44789729E-07    0.80000000E-01    0.80000000E-01 
    15.0000         1.00000         1.00000            10     8     1     1       0       0       0    0.11000000E+02    0.10000000E+02    0.19807057E+00    0.00000000E+00    0.00000000E+00    0.41507866E-07    0.80000000E-01    0.80000000E-01 
    17.0000         1.00000         1.00000            11     9     1     1       0       0       0    0.11000000E+02    0.10000000E+02    0.19807057E+00    0.00000000E+00    0.00000000E+00    0.22727643E-07    0.80000000E-01    0.80000000E-01 
    19.0000         1.00000         1.00000            12    10     1     1       0       0       0    0.11000000E+02    0.10000000E+02    0.19807057E+00    0.00000000E+00    0.00000000E+00    0.18099086E-07    0.80000000E-01    0.80000000E-01 
    21.0000         1.00000         1.00000            13    11     1     1       0       0       0    0.11000000E+02    0.10000000E+02    0.19807057E+00    0.00000000E+00    0.00000000E+00    0.16880135E-07    0.80000000E-01    0.80000000E-01 
    23.0000         1.00000         1.00000            14    12     1     1       0       0       0    0.11000000E+02    0.10000000E+02    0.19807057E+00    0.00000000E+00    0.00000000E+00    0.22277474E-07    0.80000000E-01    0.80000000E-01 
    25.0000         1.00000         1.00000            15    13     1     1       0       0       0    0.11000000E+02    0.10000000E+02    0.19807057E+00    0.00000000E+00    0.00000000E+00    0.29573736E-07    0.80000000E-01    0.80000000E-01 
    27.0000         1.00000         1.00000            16    14     1     1       0       0       0    0.11000000E+02    0.10000000E+02    0.19807057E+00    0.00000000E+00    0.00000000E+00    0.51901438E-07    0.80000000E-01    0.80000000E-01 
    29.0000         1.00000         1.00000            17    15     1     1       0       0       0    0.11000000E+02    0.10000000E+02    0.19807057E+00    0.00000000E+00    0.00000000E+00    0.59959706E-07    0.80000000E-01    0.80000000E-01 
    31.0000         1.00000         1.00000            18    16     1     1       0       0       0    0.11000000E+02    0.10000000E+02    0.19807057E+00    0.00000000E+00    0.00000000E+00    0.76853208E-07    0.80000000E-01    0.80000000E-01 
    33.0000         1.00000         1.00000            19    17     1     1       0       0       0    0.11000000E+02    0.10000000E+02    0.19807057E+00    0.00000000E+00    0.00000000E+00    0.74459038E-07    0.80000000E-01    0.80000000E-01 
    35.0000         1.00000         1.00000            20    18     1     1       0       0       0    0.11000000E+02    0.10000000E+02    0.19807057E+00    0.00000000E+00    0.00000000E+00    0.10064995E-06    0.80000000E-01    0.80000000E-01 
    37.0000         1.00000         1.00000            21    19     1     1       0       0       0    0.11000000E+02    0.10000000E+02    0.19807057E+00    0.00000000E+00    0.00000000E+00    0.10541469E-06    0.80000000E-01    0.80000000E-01 
    39.0000         1.00000         1.00000            22    20     1     1       0       0       0    0.11000000E+02    0.10000000E+02    0.19807057E+00    0.00000000E+00    0.00000000E+00    0.11508617E-06    0.80000000E-01    0.80000000E-01 
    41.0000         1.00000         1.00000            23    21     1     1       0       0       0    0.11000000E+02    0.10000000E+02    0.19807057E+00    0.00000000E+00    0.00000000E+00    0.12570925E-06    0.80000000E-01    0.80000000E-01 
    43.0000         1.00000         1.00000            24    22     1     1       0       0       0    0.11000000E+02    0.10000000E+02    0.19807057E+00    0.00000000E+00    0.00000000E+00    0.15896239E-06    0.80000000E-01    0.80000000E-01 
    45.0000         1.00000         1.00000            25    23     1     1       0       0       0    0.11000000E+02    0.10000000E+02    0.19807057E+00    0.00000000E+00    0.00000000E+00    0.24080573E-06    0.80000000E-01    0.80000000E-01 
    47.0000         1.00000         1.00000            26    24     1     1       0       0       0    0.11000000E+02    0.10000000E+02    0.19807057E+00    0.00000000E+00    0.00000000E+00    0.29943974E-06    0.80000000E-01    0.80000000E-01 
    49.0000         1.00000         1.00000            27    25     1     1       0       0       0    0.11000000E+02    0.10000000E+02    0.19807057E+00    0.00000000E+00    0.00000000E+00    0.39989452E-06    0.80000000E-01    0.80000000E-01 
    51.0000         1.00000         1.00000            28    26     1     1       0       0       0    0.11000000E+02    0.10000000E+02    0.19807057E+00    0.00000000E+00    0.00000000E+00    0.36808292E-06    0.80000000E-01    0.80000000E-01 
    53.0000         1.00000         1.00000            29    27     1     1       0       0       0    0.11000000E+02    0.10000000E+02    0.19807057E+00    0.00000000E+00    0.00000000E+00    0.31901169E-06    0.80000000E-01    0.80000000E-01 
    55.0000         1.00000         1.00000            30    28     1     1       0       0       0    0.11000000E+02    0.10000000E+02    0.19807057E+00    0.00000000E+00    0.00000000E+00    0.32724947E-06    0.80000000E-01    0.80000000E-01 
    57.0000         1.00000         1.00000            31    29     1     1       0       0       0    0.11000000E+02    0.10000000E+02    0.19807057E+00    0.00000000E+00    0.00000000E+00    0.27198916E-06    0.80000000E-01    0.80000000E-01 
    59.0000         1.00000         1.00000            32    30     1     1       0       0       0    0.11000000E+02    0.10000000E+02    0.19807057E+00    0.00000000E+00    0.00000000E+00    0.32283005E-06    0.80000000E-01    0.80000000E-01 
    61.0000         1.00000         1.00000            33    31     1     1       0       0       0    0.11000000E+02    0.10000000E+02    0.19807057E+00    0.00000000E+00    0.00000000E+00    0.42379824E-06    0.80000000E-01    0.80000000E-01 
    1.00000         3.00000         1.00000            34     1     2     1       0       0       0    0.10949620E+02    0.10000000E+02    0.19757649E+00    0.00000000E+00    0.00000000E+00    0.16415030E-06    0.79996391E-01    0.79996391E-01 
    3.00000         3.00000         1.00000            35     2     2     1       0       0       0    0.10946849E+02    0.10000000E+02    0.19754931E+00    0.00000000E+00    0.00000000E+00    0.10425507E-06    0.79996092E-01    0.79996092E-01 
    5.00000         3.00000         1.00000            36     3     2     1       0       0       0    0.10944857E+02    0.10000000E+02    0.19752978E+00    0.00000000E+00    0.00000000E+00    0.10059731E-06    0.79995733E-01    0.79995733E-01 
    7.00000         3.00000         1.00000            37     4     2     1       0       0       0    0.10942832E+02    0.10000000E+02    0.19750992E+00    0.00000000E+00    0.00000000E+00    0.70901000E-07    0.79995047E-01    0.79995047E-01 
    9.00000         3.00000         1.00000            38     5     2     1       0       0       0    0.10942673E+02    0.10000000E+02    0.19750837E+00    0.00000000E+00    0.00000000E+00    0.58422976E-07    0.79994001E-01    0.79994001E-01 
    11.0000         3.00000         1.00000            39     6     2     1       0       0       0    0.10944419E+02    0.10000000E+02    0.19752549E+00    0.00000000E+00    0.00000000E+00    0.46370502E-07    0.79992835E-01    0.79992835E-01 
    13.0000         3.00000         1.00000            40     7     2     1       0       0       0    0.10951180E+02    0.10000000E+02    0.19759179E+00    0.00000000E+00    0.00000000E+00    0.45785418E-07    0.79992059E-01    0.79992059E-01 
    15.0000         3.00000         1.00000            41     8     2     1       0       0       0    0.10959491E+02    0.10000000E+02    0.19767330E+00    0.00000000E+00    0.00000000E+00    0.39423031E-07    0.79991522E-01    0.79991522E-01 
    17.0000         3.00000         1.00000            42     9     2     1       0       0       0    0.10963096E+02    0.10000000E+02    0.19770865E+00    0.00000000E+00    0.00000000E+00    0.22226208E-07    0.79989988E-01    0.79989988E-01 
    19.0000         3.00000         1.00000            43    10     2     1       0       0       0    0.10965472E+02    0.10000000E+02    0.19773195E+00    0.00000000E+00    0.00000000E+00    0.17201785E-07    0.79988504E-01    0.79988504E-01 
    21.0000         3.00000         1.00000            44    11     2     1       0       0       0    0.10963880E+02    0.10000000E+02    0.19771634E+00    0.00000000E+00    0.00000000E+00    0.17470249E-07    0.79987809E-01    0.79987809E-01 
    23.0000         3.00000         1.00000            45    12     2     1       0       0       0    0.10965010E+02    0.10000000E+02    0.19772742E+00    0.00000000E+00    0.00000000E+00    0.22985536E-07    0.79989572E-01    0.79989572E-01 
    25.0000         3.00000         1.00000            46    13     2     1       0       0       0    0.10968025E+02    0.10000000E+02    0.19775699E+00    0.00000000E+00    0.00000000E+00    0.30151629E-07    0.79992121E-01    0.79992121E-01 
    27.0000         3.00000         1.00000            47    14     2     1       0       0       0    0.10970762E+02    0.10000000E+02    0.19778383E+00    0.00000000E+00    0.00000000E+00    0.53728801E-07    0.79994536E-01    0.79994536E-01 
    29.0000         3.00000         1.00000            48    15     2     1       0       0       0    0.10974219E+02    0.10000000E+02    0.19781774E+00    0.00000000E+00    0.00000000E+00    0.58772941E-07    0.79995949E-01    0.79995949E-01 
    31.0000         3.00000         1.00000            49    16     2     1       0       0       0    0.10975769E+02    0.10000000E+02    0.19783293E+00    0.00000000E+00    0.00000000E+00    0.76415672E-07    0.79997025E-01    0.79997025E-01 
    33.0000         3.00000         1.00000            50    17     2     1       0       0       0    0.10976696E+02    0.10000000E+02    0.19784203E+00    0.00000000E+00    0.00000000E+00    0.70647062E-07    0.79997775E-01    0.79997775E-01 
    35.0000         3.00000         1.00000            51    18     2     1       0       0       0    0.10974786E+02    0.10000000E+02    0.19782330E+00    0.00000000E+00    0.00000000E+00    0.96870258E-07    0.79998441E-01    0.79998441E-01 
    37.0000         3.00000         1.00000            52    19     2     1       0       0       0    0.10970687E+02    0.10000000E+02    0.19778309E+00    0.00000000E+00    0.00000000E+00    0.10817433E-06    0.79998807E-01    0.79998807E-01 
    39.0000         3.00000         1.00000            53    20     2     1       0       0       0    0.10967529E+02    0.10000000E+02    0.19775212E+00    0.00000000E+00    0.00000000E+00    0.11208240E-06    0.79999121E-01    0.79999121E-01 
    41.0000         3.00000         1.00000            54    21     2     1       0       0       0    0.10961856E+02    0.10000000E+02    0.19769649E+00    0.00000000E+00    0.00000000E+00    0.12769789E-06    0.79999355E-01    0.79999355E-01 
    43.0000         3.00000         1.00000            55    22     2     1       0       0       0    0.10957949E+02    0.10000000E+02    0.19765818E+00    0.00000000E+00    0.00000000E+00    0.16857748E-06    0.79999528E-01    0.79999528E-01 
    45.0000         3.00000         1.00000            56    23     2     1       0       0       0    0.10958665E+02    0.10000000E+02    0.19766520E+00    0.00000000E+00    0.00000000E+00    0.25976106E-06    0.79999649E-01    0.79999649E-01 
    47.0000         3.00000         1.00000            57    24     2     1       0       0       0    0.10963299E+02    0.10000000E+02    0.19771064E+00    0.00000000E+00    0.00000000E+00    0.28624303E-06    0.79999736E-01    0.79999736E-01 
    49.0000         3.00000         1.00000            58    25     2     1       0       0       0    0.10964292E+02    0.10000000E+02    0.19772038E+00    0.00000000E+00    0.00000000E+00    0.40126151E-06    0.79999789E-01    0.79999789E-01 
    51.0000         3.00000         1.00000            59    26     2     1       0       0       0    0.10965325E+02    0.10000000E+02    0.19773051E+00    0.00000000E+00    0.00000000E+00    0.37647313E-06    0.79999813E-01    0.79999813E-01 
    53.0000         3.00000         1.00000            60    27     2     1       0       0       0    0.10967889E+02    0.10000000E+02    0.19775566E+00    0.00000000E+00    0.00000000E+00    0.31962773E-06    0.79999836E-01    0.79999836E-01 
    55.0000         3.00000         1.00000            61    28     2     1       0       0       0    0.10969950E+02    0.10000000E+02    0.19777586E+00    0.00000000E+00    0.00000000E+00    0.33698300E-06    0.79999855E-01    0.79999855E-01 
    57.0000         3.00000         1.00000            62    29     2     1       0       0       0    0.10973097E+02    0.10000000E+02    0.19780673E+00    0.00000000E+00    0.00000000E+00    0.26764729E-06    0.79999873E-01    0.79999873E-01 
    59.0000         3.00000         1.00000            63    30     2     1       0       0       0    0.10975456E+02    0.10000000E+02    0.19782987E+00    0.00000000E+00    0.00000000E+00    0.29969359E-06    0.79999891E-01    0.79999891E-01 
    61.0000         3.00000         1.00000            64    31     2     1       0       0       0    0.10974462E+02    0.10000000E+02    0.19782012E+00    0.00000000E+00    0.00000000E+00    0.43243013E-06    0.79999894E-01    0.79999894E-01 
    1.00000         5.00000         1.00000            65     1     3     1       0       0       0    0.10911692E+02    0.10000000E+02    0.19720453E+00    0.00000000E+00    0.00000000E+00    0.15519273E-06    0.79991234E-01    0.79991234E-01 
    3.00000         5.00000         1.00000            66     2     3     1       0       0       0    0.10909271E+02    0.10000000E+02    0.19718078E+00    0.00000000E+00    0.00000000E+00    0.11371077E-06    0.79990489E-01    0.79990489E-01 
    5.00000         5.00000         1.00000            67     3     3     1       0       0       0    0.10910605E+02    0.10000000E+02    0.19719387E+00    0.00000000E+00    0.00000000E+00    0.96744280E-07    0.79989976E-01    0.79989976E-01 
    7.00000         5.00000         1.00000            68     4     3     1       0       0       0    0.10909835E+02    0.10000000E+02    0.19718632E+00    0.00000000E+00    0.00000000E+00    0.69993297E-07    0.79988476E-01    0.79988476E-01 
    9.00000         5.00000         1.00000            69     5     3     1       0       0       0    0.10905931E+02    0.10000000E+02    0.19714803E+00    0.00000000E+00    0.00000000E+00    0.61441127E-07    0.79985761E-01    0.79985761E-01 
    11.0000         5.00000         1.00000            70     6     3     1       0       0       0    0.10902452E+02    0.10000000E+02    0.19711391E+00    0.00000000E+00    0.00000000E+00    0.52826672E-07    0.79983054E-01    0.79983054E-01 
    13.0000         5.00000         1.00000            71     7     3     1       0       0       0    0.10905127E+02    0.10000000E+02    0.19714014E+00    0.00000000E+00    0.00000000E+00    0.48506450E-07    0.79981206E-01    0.79981206E-01 
    15.0000         5.00000         1.00000            72     8     3     1       0       0       0    0.10913780E+02    0.10000000E+02    0.19722500E+00    0.00000000E+00    0.00000000E+00    0.34164219E-07    0.79979543E-01    0.79979543E-01 
    17.0000         5.00000         1.00000            73     9     3     1       0       0       0    0.10917564E+02    0.10000000E+02    0.19726212E+00    0.00000000E+00    0.00000000E+00    0.20926576E-07    0.79975310E-01    0.79975310E-01 
    19.0000         5.00000         1.00000            74    10     3     1       0       0       0    0.10919589E+02    0.10000000E+02    0.19728197E+00    0.00000000E+00    0.00000000E+00    0.15882272E-07    0.79971534E-01    0.79971534E-01 
    21.0000         5.00000         1.00000            75    11     3     1       0       0       0    0.10919226E+02    0.10000000E+02    0.19727841E+00    0.00000000E+00    0.00000000E+00    0.19284614E-07    0.79971313E-01    0.79971313E-01 
    23.0000         5.00000         1.00000            76    12     3     1       0       0       0    0.10923751E+02    0.10000000E+02    0.19732279E+00    0.00000000E+00    0.00000000E+00    0.26464467E-07    0.79975672E-01    0.79975672E-01 
    25.0000         5.00000         1.00000            77    13     3     1       0       0       0    0.10932832E+02    0.10000000E+02    0.19741185E+00    0.00000000E+00    0.00000000E+00    0.32482381E-07    0.79981470E-01    0.79981470E-01 
    27.0000         5.00000         1.00000            78    14     3     1       0       0       0    0.10939569E+02    0.10000000E+02    0.19747792E+00    0.00000000E+00    0.00000000E+00    0.52971489E-07    0.79987259E-01    0.79987259E-01 
    29.0000         5.00000         1.00000            79    15     3     1       0       0       0    0.10941709E+02    0.10000000E+02    0.19749891E+00    0.00000000E+00    0.00000000E+00    0.58486495E-07    0.79990294E-01    0.79990294E-01 
    31.0000         5.00000         1.00000            80    16     3     1       0       0       0    0.10944768E+02    0.10000000E+02    0.19752891E+00    0.00000000E+00    0.00000000E+00    0.75033561E-07    0.79992788E-01    0.79992788E-01 
    33.0000         5.00000         1.00000            81    17     3     1       0       0       0    0.10946611E+02    0.10000000E+02    0.19754699E+00    0.00000000E+00    0.00000000E+00    0.61065662E-07    0.79994487E-01    0.79994487E-01 
    35.0000         5.00000         1.00000            82    18     3     1       0       0       0    0.10943346E+02    0.10000000E+02    0.19751496E+00    0.00000000E+00    0.00000000E+00    0.91324514E-07    0.79996177E-01    0.79996177E-01 
    37.0000         5.00000         1.00000            83    19     3     1       0       0       0    0.10940081E+02    0.10000000E+02    0.19748294E+00    0.00000000E+00    0.00000000E+00    0.10360530E-06    0.79997169E-01    0.79997169E-01 
    39.0000         5.00000         1.00000            84    20     3     1       0       0       0    0.10933379E+02    0.10000000E+02    0.19741722E+00    0.00000000E+00    0.00000000E+00    0.11250012E-06    0.79997892E-01    0.79997892E-01 
    41.0000         5.00000         1.00000            85    21     3     1       0       0       0    0.10928452E+02    0.10000000E+02    0.19736889E+00    0.00000000E+00    0.00000000E+00    0.12886921E-06    0.79998484E-01    0.79998484E-01 
    43.0000         5.00000         1.00000            86    22     3     1       0       0       0    0.10924484E+02    0.10000000E+02    0.19732998E+00    0.00000000E+00    0.00000000E+00    0.19815948E-06    0.79998917E-01    0.79998917E-01 
    45.0000         5.00000         1.00000            87    23     3     1       0       0       0    0.10926803E+02    0.10000000E+02    0.19735272E+00    0.00000000E+00    0.00000000E+00    0.28676900E-06    0.79999188E-01    0.79999188E-01 
    47.0000         5.00000         1.00000            88    24     3     1       0       0       0    0.10931128E+02    0.10000000E+02    0.19739514E+00    0.00000000E+00    0.00000000E+00    0.28161819E-06    0.79999347E-01    0.79999347E-01 
    49.0000         5.00000         1.00000            89    25     3     1       0       0       0    0.10936281E+02    0.10000000E+02    0.19744568E+00    0.00000000E+00    0.00000000E+00    0.38455200E-06    0.79999489E-01    0.79999489E-01 
    51.0000         5.00000         1.00000            90    26     3     1       0       0       0    0.10937177E+02    0.10000000E+02    0.19745446E+00    0.00000000E+00    0.00000000E+00    0.39733615E-06    0.79999553E-01    0.79999553E-01 
    53.0000         5.00000         1.00000            91    27     3     1       0       0       0    0.10940029E+02    0.10000000E+02    0.19748243E+00    0.00000000E+00    0.00000000E+00    0.33118065E-06    0.79999601E-01    0.79999601E-01 
    55.0000         5.00000         1.00000            92    28     3     1       0       0       0    0.10945091E+02    0.10000000E+02    0.19753207E+00    0.00000000E+00    0.00000000E+00    0.33306105E-06    0.79999652E-01    0.79999652E-01 
    57.0000         5.00000         1.00000            93    29     3     1       0       0       0    0.10948242E+02    0.10000000E+02    0.19756298E+00    0.00000000E+00    0.00000000E+00    0.26290587E-06    0.79999684E-01    0.79999684E-01 
    59.0000         5.00000         1.00000            94    30     3     1       0       0       0    0.10952039E+02    0.10000000E+02    0.19760021E+00    0.00000000E+00    0.00000000E+00    0.27825116E-06    0.79999718E-01    0.79999718E-01 
    61.0000         5.00000         1.00000            95    31     3     1       0       0       0    0.10954570E+02    0.10000000E+02    0.19762504E+00    0.00000000E+00    0.00000000E+00    0.42390691E-06    0.79999744E-01    0.79999744E-01 
    1.00000         7.00000         1.00000            96     1     4     1       0       0       0    0.10882786E+02    0.10000000E+02    0.19692105E+00    0.00000000E+00    0.00000000E+00    0.14681335E-06    0.79984186E-01    0.79984186E-01 
    3.00000         7.00000         1.00000            97     2     4     1       0       0       0    0.10881729E+02    0.10000000E+02    0.19691068E+00    0.00000000E+00    0.00000000E+00    0.12780414E-06    0.79983108E-01    0.79983108E-01 
    5.00000         7.00000         1.00000            98     3     4     1       0       0       0    0.10883527E+02    0.10000000E+02    0.19692832E+00    0.00000000E+00    0.00000000E+00    0.86769535E-07    0.79982177E-01    0.79982177E-01 
    7.00000         7.00000         1.00000            99     4     4     1       0       0       0    0.10881279E+02    0.10000000E+02    0.19690627E+00    0.00000000E+00    0.00000000E+00    0.63731149E-07    0.79979428E-01    0.79979428E-01 
    9.00000         7.00000         1.00000           100     5     4     1       0       0       0    0.10875453E+02    0.10000000E+02    0.19684913E+00    0.00000000E+00    0.00000000E+00    0.66047123E-07    0.79974806E-01    0.79974806E-01 
    11.0000         7.00000         1.00000           101     6     4     1       0       0       0    0.10872734E+02    0.10000000E+02    0.19682246E+00    0.00000000E+00    0.00000000E+00    0.62931932E-07    0.79970840E-01    0.79970840E-01 
    13.0000         7.00000         1.00000           102     7     4     1       0       0       0    0.10874292E+02    0.10000000E+02    0.19683775E+00    0.00000000E+00    0.00000000E+00    0.50158120E-07    0.79967966E-01    0.79967966E-01 
    15.0000         7.00000         1.00000           103     8     4     1       0       0       0    0.10876690E+02    0.10000000E+02    0.19686126E+00    0.00000000E+00    0.00000000E+00    0.28552994E-07    0.79963497E-01    0.79963497E-01 
    17.0000         7.00000         1.00000           104     9     4     1       0       0       0    0.10874684E+02    0.10000000E+02    0.19684159E+00    0.00000000E+00    0.00000000E+00    0.20303664E-07    0.79954852E-01    0.79954852E-01 
    19.0000         7.00000         1.00000           105    10     4     1       0       0       0    0.10872194E+02    0.10000000E+02    0.19681717E+00    0.00000000E+00    0.00000000E+00    0.17380181E-07    0.79948427E-01    0.79948427E-01 
    21.0000         7.00000         1.00000           106    11     4     1       0       0       0    0.10878147E+02    0.10000000E+02    0.19687555E+00    0.00000000E+00    0.00000000E+00    0.22038561E-07    0.79951148E-01    0.79951148E-01 
    23.0000         7.00000         1.00000           107    12     4     1       0       0       0    0.10885251E+02    0.10000000E+02    0.19694522E+00    0.00000000E+00    0.00000000E+00    0.29981124E-07    0.79959448E-01    0.79959448E-01 
    25.0000         7.00000         1.00000           108    13     4     1       0       0       0    0.10894115E+02    0.10000000E+02    0.19703215E+00    0.00000000E+00    0.00000000E+00    0.33759175E-07    0.79968305E-01    0.79968305E-01 
    27.0000         7.00000         1.00000           109    14     4     1       0       0       0    0.10903448E+02    0.10000000E+02    0.19712368E+00    0.00000000E+00    0.00000000E+00    0.47729837E-07    0.79977280E-01    0.79977280E-01 
    29.0000         7.00000         1.00000           110    15     4     1       0       0       0    0.10905629E+02    0.10000000E+02    0.19714507E+00    0.00000000E+00    0.00000000E+00    0.58472596E-07    0.79982981E-01    0.79982981E-01 
    31.0000         7.00000         1.00000           111    16     4     1       0       0       0    0.10906248E+02    0.10000000E+02    0.19715114E+00    0.00000000E+00    0.00000000E+00    0.73721238E-07    0.79987103E-01    0.79987103E-01 
    33.0000         7.00000         1.00000           112    17     4     1       0       0       0    0.10906787E+02    0.10000000E+02    0.19715642E+00    0.00000000E+00    0.00000000E+00    0.56324109E-07    0.79989815E-01    0.79989815E-01 
    35.0000         7.00000         1.00000           113    18     4     1       0       0       0    0.10908652E+02    0.10000000E+02    0.19717472E+00    0.00000000E+00    0.00000000E+00    0.86894662E-07    0.79993035E-01    0.79993035E-01 
    37.0000         7.00000         1.00000           114    19     4     1       0       0       0    0.10907536E+02    0.10000000E+02    0.19716377E+00    0.00000000E+00    0.00000000E+00    0.91114378E-07    0.79994883E-01    0.79994883E-01 
    39.0000         7.00000         1.00000           115    20     4     1       0       0       0    0.10904186E+02    0.10000000E+02    0.19713092E+00    0.00000000E+00    0.00000000E+00    0.11066593E-06    0.79996340E-01    0.79996340E-01 
    41.0000         7.00000         1.00000           116    21     4     1       0       0       0    0.10900509E+02    0.10000000E+02    0.19709486E+00    0.00000000E+00    0.00000000E+00    0.13242185E-06    0.79997398E-01    0.79997398E-01 
    43.0000         7.00000         1.00000           117    22     4     1       0       0       0    0.10899695E+02    0.10000000E+02    0.19708687E+00    0.00000000E+00    0.00000000E+00    0.21488370E-06    0.79998181E-01    0.79998181E-01 
    45.0000         7.00000         1.00000           118    23     4     1       0       0       0    0.10898495E+02    0.10000000E+02    0.19707511E+00    0.00000000E+00    0.00000000E+00    0.31428773E-06    0.79998594E-01    0.79998594E-01 
    47.0000         7.00000         1.00000           119    24     4     1       0       0       0    0.10900829E+02    0.10000000E+02    0.19709800E+00    0.00000000E+00    0.00000000E+00    0.31246107E-06    0.79998829E-01    0.79998829E-01 
    49.0000         7.00000         1.00000           120    25     4     1       0       0       0    0.10907134E+02    0.10000000E+02    0.19715983E+00    0.00000000E+00    0.00000000E+00    0.35892079E-06    0.79999057E-01    0.79999057E-01 
    51.0000         7.00000         1.00000           121    26     4     1       0       0       0    0.10911113E+02    0.10000000E+02    0.19719885E+00    0.00000000E+00    0.00000000E+00    0.40805769E-06    0.79999202E-01    0.79999202E-01 
    53.0000         7.00000         1.00000           122    27     4     1       0       0       0    0.10914067E+02    0.10000000E+02    0.19722782E+00    0.00000000E+00    0.00000000E+00    0.35308475E-06    0.79999282E-01    0.79999282E-01 
    55.0000         7.00000         1.00000           123    28     4     1       0       0       0    0.10918937E+02    0.10000000E+02    0.19727558E+00    0.00000000E+00    0.00000000E+00    0.32590896E-06    0.79999355E-01    0.79999355E-01 