title = "samples_output/WAVEREAL_TRUE_E0_1"
variables = "i",  "j",  "k", "x",            "y",            "z", "uindex",   "obsz","obst","cindex",           "head",           "temp",           "pres",           "satn",           "epot",           "vx",           "vy",           "vz",          "por",           "kx",           "ky",           "kz",           "lx",           "ly",           "lz",         "rhof",         "visf",          "qxc",          "qyc",          "qzc",        "sigma",           "lc",          "src",          "jxc",          "jyc",          "jzc"
zone i=   31, j=   31, k=    1, f=point
     1     1     1    1.00000         1.00000         1.00000              3       0       0       0   0.11000000E+02    0.10000000E+02    0.19807057E+00    0.00000000E+00    0.000000E+00   -0.000000E+00    0.167741E-06    0.000000E+00    0.100000E+00   -0.120809E+02   -0.120809E+02   -0.120809E+02    0.284336E+01    0.284336E+01    0.284336E+01    0.999700E+03    0.130800E-02   -0.000000E+00   -0.000000E+00    0.000000E+00    0.681000E-02    0.000000E+00    0.800000E-01   -0.000000E+00   -0.000000E+00    0.000000E+00
     2     1     1    3.00000         1.00000         1.00000              4       0       0       0   0.11000000E+02    0.10000000E+02    0.19807057E+00    0.00000000E+00    0.000000E+00   -0.000000E+00    0.102553E-06    0.000000E+00    0.100000E+00   -0.123369E+02   -0.123369E+02   -0.123369E+02    0.284336E+01    0.284336E+01    0.284336E+01    0.999700E+03    0.130800E-02   -0.000000E+00   -0.000000E+00    0.000000E+00    0.681000E-02    0.000000E+00    0.800000E-01   -0.000000E+00   -0.000000E+00    0.000000E+00
     3     1     1    5.00000         1.00000         1.00000              5       0       0       0   0.11000000E+02    0.10000000E+02    0.19807057E+00    0.00000000E+00    0.000000E+00   -0.000000E+00    0.100291E-06    0.000000E+00    0.100000E+00   -0.123969E+02   -0.123969E+02   -0.123969E+02    0.284336E+01    0.284336E+01    0.284336E+01    0.999700E+03    0.130800E-02   -0.000000E+00   -0.000000E+00    0.000000E+00    0.681000E-02    0.000000E+00    0.800000E-01   -0.000000E+00   -0.000000E+00    0.000000E+00
     4     1     1    7.00000         1.00000         1.00000              6       0       0       0   0.11000000E+02    0.10000000E+02    0.19807057E+00    0.00000000E+00    0.000000E+00   -0.000000E+00    0.689801E-07    0.000000E+00    0.100000E+00   -0.126104E+02   -0.126104E+02   -0.126104E+02    0.284336E+01    0.284336E+01    0.284336E+01    0.999700E+03    0.130800E-02   -0.000000E+00   -0.000000E+00    0.000000E+00    0.681000E-02    0.000000E+00    0.800000E-01   -0.000000E+00   -0.000000E+00    0.000000E+00
     5     1     1    9.00000         1.00000         1.00000              7       0       0       0   0.11000000E+02    0.10000000E+02    0.19807057E+00    0.00000000E+00    0.000000E+00   -0.000000E+00    0.572896E-07    0.000000E+00    0.100000E+00   -0.126995E+02   -0.126995E+02   -0.126995E+02    0.284336E+01    0.284336E+01    0.284336E+01    0.999700E+03    0.130800E-02   -0.000000E+00   -0.000000E+00    0.000000E+00    0.681000E-02    0.000000E+00    0.800000E-01   -0.000000E+00   -0.000000E+00    0.000000E+00
     6     1     1    11.0000         1.00000         1.00000              8       0       0       0   0.11000000E+02    0.10000000E+02    0.19807057E+00    0.00000000E+00    0.000000E+00   -0.000000E+00    0.442585E-07    0.000000E+00    0.100000E+00   -0.127290E+02   -0.127290E+02   -0.127290E+02    0.284336E+01    0.284336E+01    0.284336E+01    0.999700E+03    0.130800E-02   -0.000000E+00   -0.000000E+00    0.000000E+00    0.681000E-02    0.000000E+00    0.800000E-01   -0.000000E+00   -0.000000E+00    0.000000E+00
     7     1     1    13.0000         1.00000         1.00000              9       0       0       0   0.11000000E+02    0.10000000E+02    0.19807057E+00    0.00000000E+00    0.000000E+00   -0.000000E+00    0.447897E-07    0.000000E+00    0.100000E+00   -0.125585E+02   -0.125585E+02   -0.125585E+02    0.284336E+01    0.284336E+01    0.284336E+01    0.999700E+03    0.130800E-02   -0.000000E+00   -0.000000E+00    0.000000E+00    0.681000E-02    0.000000E+00    0.800000E-01   -0.000000E+00   -0.000000E+00    0.000000E+00
     8     1     1    15.0000         1.00000         1.00000             10       0       0       0   0.11000000E+02    0.10000000E+02    0.19807057E+00    0.00000000E+00    0.000000E+00   -0.000000E+00    0.415079E-07    0.000000E+00    0.100000E+00   -0.124669E+02   -0.124669E+02   -0.124669E+02    0.284336E+01    0.284336E+01    0.284336E+01    0.999700E+03    0.130800E-02   -0.000000E+00   -0.000000E+00    0.000000E+00    0.681000E-02    0.000000E+00    0.800000E-01   -0.000000E+00   -0.000000E+00    0.000000E+00
     9     1     1    17.0000         1.00000         1.00000             11       0       0       0   0.11000000E+02    0.10000000E+02    0.19807057E+00    0.00000000E+00    0.000000E+00   -0.000000E+00    0.227276E-07    0.000000E+00    0.100000E+00   -0.126623E+02   -0.126623E+02   -0.126623E+02    0.284336E+01    0.284336E+01    0.284336E+01    0.999700E+03    0.130800E-02   -0.000000E+00   -0.000000E+00    0.000000E+00    0.681000E-02    0.000000E+00    0.800000E-01   -0.000000E+00   -0.000000E+00    0.000000E+00
    10     1     1    19.0000         1.00000         1.00000             12       0       0       0   0.11000000E+02    0.10000000E+02    0.19807057E+00    0.00000000E+00    0.000000E+00   -0.000000E+00    0.180991E-07    0.000000E+00    0.100000E+00   -0.127828E+02   -0.127828E+02   -0.127828E+02    0.284336E+01    0.284336E+01    0.284336E+01    0.999700E+03    0.130800E-02   -0.000000E+00   -0.000000E+00    0.000000E+00    0.681000E-02    0.000000E+00    0.800000E-01   -0.000000E+00   -0.000000E+00    0.000000E+00
    11     1     1    21.0000         1.00000         1.00000             13       0       0       0   0.11000000E+02    0.10000000E+02    0.19807057E+00    0.00000000E+00    0.000000E+00   -0.000000E+00    0.168801E-07    0.000000E+00    0.100000E+00   -0.128130E+02   -0.128130E+02   -0.128130E+02    0.284336E+01    0.284336E+01    0.284336E+01    0.999700E+03    0.130800E-02   -0.000000E+00   -0.000000E+00    0.000000E+00    0.681000E-02    0.000000E+00    0.800000E-01   -0.000000E+00   -0.000000E+00    0.000000E+00
    12     1     1    23.0000         1.00000         1.00000             14       0       0       0   0.11000000E+02    0.10000000E+02    0.19807057E+00    0.00000000E+00    0.000000E+00   -0.000000E+00    0.222775E-07    0.000000E+00    0.100000E+00   -0.126690E+02   -0.126690E+02   -0.126690E+02    0.284336E+01    0.284336E+01    0.284336E+01    0.999700E+03    0.130800E-02   -0.000000E+00   -0.000000E+00    0.000000E+00    0.681000E-02    0.000000E+00    0.800000E-01   -0.000000E+00   -0.000000E+00    0.000000E+00
    13     1     1    25.0000         1.00000         1.00000             15       0       0       0   0.11000000E+02    0.10000000E+02    0.19807057E+00    0.00000000E+00    0.000000E+00   -0.000000E+00    0.295737E-07    0.000000E+00    0.100000E+00   -0.124890E+02   -0.124890E+02   -0.124890E+02    0.284336E+01    0.284336E+01    0.284336E+01    0.999700E+03    0.130800E-02   -0.000000E+00   -0.000000E+00    0.000000E+00    0.681000E-02    0.000000E+00    0.800000E-01   -0.000000E+00   -0.000000E+00    0.000000E+00
    14     1     1    27.0000         1.00000         1.00000             16       0       0       0   0.11000000E+02    0.10000000E+02    0.19807057E+00    0.00000000E+00    0.000000E+00   -0.000000E+00    0.519014E-07    0.000000E+00    0.100000E+00   -0.123035E+02   -0.123035E+02   -0.123035E+02    0.284336E+01    0.284336E+01    0.284336E+01    0.999700E+03    0.130800E-02   -0.000000E+00   -0.000000E+00    0.000000E+00    0.681000E-02    0.000000E+00    0.800000E-01   -0.000000E+00   -0.000000E+00    0.000000E+00
    15     1     1    29.0000         1.00000         1.00000             17       0       0       0   0.11000000E+02    0.10000000E+02    0.19807057E+00    0.00000000E+00    0.000000E+00   -0.000000E+00    0.599597E-07    0.000000E+00    0.100000E+00   -0.120789E+02   -0.120789E+02   -0.120789E+02    0.284336E+01    0.284336E+01    0.284336E+01    0.999700E+03    0.130800E-02   -0.000000E+00   -0.000000E+00    0.000000E+00    0.681000E-02    0.000000E+00    0.800000E-01   -0.000000E+00   -0.000000E+00    0.000000E+00
    16     1     1    31.0000         1.00000         1.00000             18       0       0       0   0.11000000E+02    0.10000000E+02    0.19807057E+00    0.00000000E+00    0.000000E+00   -0.000000E+00    0.768532E-07    0.000000E+00    0.100000E+00   -0.119694E+02   -0.119694E+02   -0.119694E+02    0.284336E+01    0.284336E+01    0.284336E+01    0.999700E+03    0.130800E-02   -0.000000E+00   -0.000000E+00    0.000000E+00    0.681000E-02    0.000000E+00    0.800000E-01   -0.000000E+00   -0.000000E+00    0.000000E+00
    17     1     1    33.0000         1.00000         1.00000             19       0       0       0   0.11000000E+02    0.10000000E+02    0.19807057E+00    0.00000000E+00    0.000000E+00   -0.000000E+00    0.744590E-07    0.000000E+00    0.100000E+00   -0.119314E+02   -0.119314E+02   -0.119314E+02    0.284336E+01    0.284336E+01    0.284336E+01    0.999700E+03    0.130800E-02   -0.000000E+00   -0.000000E+00    0.000000E+00    0.681000E-02    0.000000E+00    0.800000E-01   -0.000000E+00   -0.000000E+00    0.000000E+00
    18     1     1    35.0000         1.00000         1.00000             20       0       0       0   0.11000000E+02    0.10000000E+02    0.19807057E+00    0.00000000E+00    0.000000E+00   -0.000000E+00    0.100650E-06    0.000000E+00    0.100000E+00   -0.118172E+02   -0.118172E+02   -0.118172E+02    0.284336E+01    0.284336E+01    0.284336E+01    0.999700E+03    0.130800E-02   -0.000000E+00   -0.000000E+00    0.000000E+00    0.681000E-02    0.000000E+00    0.800000E-01   -0.000000E+00   -0.000000E+00    0.000000E+00
    19     1     1    37.0000         1.00000         1.00000             21       0       0       0   0.11000000E+02    0.10000000E+02    0.19807057E+00    0.00000000E+00    0.000000E+00   -0.000000E+00    0.105415E-06    0.000000E+00    0.100000E+00   -0.120315E+02   -0.120315E+02   -0.120315E+02    0.284336E+01    0.284336E+01    0.284336E+01    0.999700E+03    0.130800E-02   -0.000000E+00   -0.000000E+00    0.000000E+00    0.681000E-02    0.000000E+00    0.800000E-01   -0.000000E+00   -0.000000E+00    0.000000E+00
    20     1     1    39.0000         1.00000         1.00000             22       0       0       0   0.11000000E+02    0.10000000E+02    0.19807057E+00    0.00000000E+00    0.000000E+00   -0.000000E+00    0.115086E-06    0.000000E+00    0.100000E+00   -0.118033E+02   -0.118033E+02   -0.118033E+02    0.284336E+01    0.284336E+01    0.284336E+01    0.999700E+03    0.130800E-02   -0.000000E+00   -0.000000E+00    0.000000E+00    0.681000E-02    0.000000E+00    0.800000E-01   -0.000000E+00   -0.000000E+00    0.000000E+00
    21     1     1    41.0000         1.00000         1.00000             23       0       0       0   0.11000000E+02    0.10000000E+02    0.19807057E+00    0.00000000E+00    0.000000E+00   -0.000000E+00    0.125709E-06    0.000000E+00    0.100000E+00   -0.121031E+02   -0.121031E+02   -0.121031E+02    0.284336E+01    0.284336E+01    0.284336E+01    0.999700E+03    0.130800E-02   -0.000000E+00   -0.000000E+00    0.000000E+00    0.681000E-02    0.000000E+00    0.800000E-01   -0.000000E+00   -0.000000E+00    0.000000E+00
    22     1     1    43.0000         1.00000         1.00000             24       0       0       0   0.11000000E+02    0.10000000E+02    0.19807057E+00    0.00000000E+00    0.000000E+00   -0.000000E+00    0.158962E-06    0.000000E+00    0.100000E+00   -0.120253E+02   -0.120253E+02   -0.120253E+02    0.284336E+01    0.284336E+01    0.284336E+01    0.999700E+03    0.130800E-02   -0.000000E+00   -0.000000E+00    0.000000E+00    0.681000E-02    0.000000E+00    0.800000E-01   -0.000000E+00   -0.000000E+00    0.000000E+00
    23     1     1    45.0000         1.00000         1.00000             25       0       0       0   0.11000000E+02    0.10000000E+02    0.19807057E+00    0.00000000E+00    0.000000E+00   -0.000000E+00    0.240806E-06    0.000000E+00    0.100000E+00   -0.119144E+02   -0.119144E+02   -0.119144E+02    0.284336E+01    0.284336E+01    0.284336E+01    0.999700E+03    0.130800E-02   -0.000000E+00   -0.000000E+00    0.000000E+00    0.681000E-02    0.000000E+00    0.800000E-01   -0.000000E+00   -0.000000E+00    0.000000E+00
    24     1     1    47.0000         1.00000         1.00000             26       0       0       0   0.11000000E+02    0.10000000E+02    0.19807057E+00    0.00000000E+00    0.000000E+00   -0.000000E+00    0.299440E-06    0.000000E+00    0.100000E+00   -0.117116E+02   -0.117116E+02   -0.117116E+02    0.284336E+01    0.284336E+01    0.284336E+01    0.999700E+03    0.130800E-02   -0.000000E+00   -0.000000E+00    0.000000E+00    0.681000E-02    0.000000E+00    0.800000E-01   -0.000000E+00   -0.000000E+00    0.000000E+00
    25     1     1    49.0000         1.00000         1.00000             27       0       0       0   0.11000000E+02    0.10000000E+02    0.19807057E+00    0.00000000E+00    0.000000E+00   -0.000000E+00    0.399895E-06    0.000000E+00    0.100000E+00   -0.116140E+02   -0.116140E+02   -0.116140E+02    0.284336E+01    0.284336E+01    0.284336E+01    0.999700E+03    0.130800E-02   -0.000000E+00   -0.000000E+00    0.000000E+00    0.681000E-02    0.000000E+00    0.800000E-01   -0.000000E+00   -0.000000E+00    0.000000E+00
    26     1     1    51.0000         1.00000         1.00000             28       0       0       0   0.11000000E+02    0.10000000E+02    0.19807057E+00    0.00000000E+00    0.000000E+00   -0.000000E+00    0.368083E-06    0.000000E+00    0.100000E+00   -0.115965E+02   -0.115965E+02   -0.115965E+02    0.284336E+01    0.284336E+01    0.284336E+01    0.999700E+03    0.130800E-02   -0.000000E+00   -0.000000E+00    0.000000E+00    0.681000E-02    0.000000E+00    0.800000E-01   -0.000000E+00   -0.000000E+00    0.000000E+00
    27     1     1    53.0000         1.00000         1.00000             29       0       0       0   0.11000000E+02    0.10000000E+02    0.19807057E+00    0.00000000E+00    0.000000E+00   -0.000000E+00    0.319012E-06    0.000000E+00    0.100000E+00   -0.116093E+02   -0.116093E+02   -0.116093E+02    0.284336E+01    0.284336E+01    0.284336E+01    0.999700E+03    0.130800E-02   -0.000000E+00   -0.000000E+00    0.000000E+00    0.681000E-02    0.000000E+00    0.800000E-01   -0.000000E+00   -0.000000E+00    0.000000E+00
    28     1     1    55.0000         1.00000         1.00000             30       0       0       0   0.11000000E+02    0.10000000E+02    0.19807057E+00    0.00000000E+00    0.000000E+00   -0.000000E+00    0.327249E-06    0.000000E+00    0.100000E+00   -0.116828E+02   -0.116828E+02   -0.116828E+02    0.284336E+01    0.284336E+01    0.284336E+01    0.999700E+03    0.130800E-02   -0.000000E+00   -0.000000E+00    0.000000E+00    0.681000E-02    0.000000E+00    0.800000E-01   -0.000000E+00   -0.000000E+00    0.000000E+00
    29     1     1    57.0000         1.00000         1.00000             31       0       0       0   0.11000000E+02    0.10000000E+02    0.19807057E+00    0.00000000E+00    0.000000E+00   -0.000000E+00    0.271989E-06    0.000000E+00    0.100000E+00   -0.116086E+02   -0.116086E+02   -0.116086E+02    0.284336E+01    0.284336E+01    0.284336E+01    0.999700E+03    0.130800E-02   -0.000000E+00   -0.000000E+00    0.000000E+00    0.681000E-02    0.000000E+00    0.800000E-01   -0.000000E+00   -0.000000E+00    0.000000E+00
    30     1     1    59.0000         1.00000         1.00000             32       0       0       0   0.11000000E+02    0.10000000E+02    0.19807057E+00    0.00000000E+00    0.000000E+00   -0.000000E+00    0.322830E-06    0.000000E+00    0.100000E+00   -0.114940E+02   -0.114940E+02   -0.114940E+02    0.284336E+01    0.284336E+01    0.284336E+01    0.999700E+03    0.130800E-02   -0.000000E+00   -0.000000E+00    0.000000E+00    0.681000E-02    0.000000E+00    0.800000E-01   -0.000000E+00   -0.000000E+00    0.000000E+00
    31     1     1    61.0000         1.00000         1.00000             33       0       0       0   0.11000000E+02    0.10000000E+02    0.19807057E+00    0.00000000E+00    0.000000E+00   -0.000000E+00    0.423798E-06    0.000000E+00    0.100000E+00   -0.114178E+02   -0.114178E+02   -0.114178E+02    0.284336E+01    0.284336E+01    0.284336E+01    0.999700E+03    0.130800E-02   -0.000000E+00   -0.000000E+00    0.000000E+00    0.681000E-02    0.000000E+00    0.800000E-01   -0.000000E+00   -0.000000E+00    0.000000E+00
     1     2     1    1.00000         3.00000         1.00000             34       0       0       0   0.10949620E+02    0.10000000E+02    0.19757649E+00    0.00000000E+00    0.000000E+00    0.752599E-08    0.163978E-06    0.000000E+00    0.100000E+00   -0.120200E+02   -0.120200E+02   -0.120200E+02    0.284336E+01    0.284336E+01    0.284336E+01    0.999700E+03    0.130800E-02   -0.000000E+00   -0.000000E+00    0.000000E+00    0.681000E-02    0.000000E+00   -0.154314E-07   -0.000000E+00   -0.000000E+00    0.000000E+00
     2     2     1    3.00000         3.00000         1.00000             35       0       0       0   0.10946849E+02    0.10000000E+02    0.19754931E+00    0.00000000E+00    0.000000E+00    0.599633E-08    0.104082E-06    0.000000E+00    0.100000E+00   -0.122339E+02   -0.122339E+02   -0.122339E+02    0.284336E+01    0.284336E+01    0.284336E+01    0.999700E+03    0.130800E-02   -0.000000E+00   -0.000000E+00    0.000000E+00    0.681000E-02    0.000000E+00   -0.154313E-07   -0.000000E+00   -0.000000E+00    0.000000E+00
     3     2     1    5.00000         3.00000         1.00000             36       0       0       0   0.10944857E+02    0.10000000E+02    0.19752978E+00    0.00000000E+00    0.000000E+00    0.425020E-08    0.100507E-06    0.000000E+00    0.100000E+00   -0.122118E+02   -0.122118E+02   -0.122118E+02    0.284336E+01    0.284336E+01    0.284336E+01    0.999700E+03    0.130800E-02   -0.000000E+00   -0.000000E+00    0.000000E+00    0.681000E-02    0.000000E+00   -0.154313E-07   -0.000000E+00   -0.000000E+00    0.000000E+00
     4     2     1    7.00000         3.00000         1.00000             37       0       0       0   0.10942832E+02    0.10000000E+02    0.19750992E+00    0.00000000E+00    0.000000E+00    0.214532E-08    0.708685E-07    0.000000E+00    0.100000E+00   -0.123296E+02   -0.123296E+02   -0.123296E+02    0.284336E+01    0.284336E+01    0.284336E+01    0.999700E+03    0.130800E-02   -0.000000E+00   -0.000000E+00    0.000000E+00    0.681000E-02    0.000000E+00   -0.154311E-07   -0.000000E+00   -0.000000E+00    0.000000E+00
     5     2     1    9.00000         3.00000         1.00000             38       0       0       0   0.10942673E+02    0.10000000E+02    0.19750837E+00    0.00000000E+00    0.000000E+00   -0.869970E-09    0.584165E-07    0.000000E+00    0.100000E+00   -0.123973E+02   -0.123973E+02   -0.123973E+02    0.284336E+01    0.284336E+01    0.284336E+01    0.999700E+03    0.130800E-02   -0.000000E+00   -0.000000E+00    0.000000E+00    0.681000E-02    0.000000E+00   -0.154309E-07   -0.000000E+00   -0.000000E+00    0.000000E+00
     6     2     1    11.0000         3.00000         1.00000             39       0       0       0   0.10944419E+02    0.10000000E+02    0.19752549E+00    0.00000000E+00    0.000000E+00   -0.394110E-08    0.462027E-07    0.000000E+00    0.100000E+00   -0.126084E+02   -0.126084E+02   -0.126084E+02    0.284336E+01    0.284336E+01    0.284336E+01    0.999700E+03    0.130800E-02   -0.000000E+00   -0.000000E+00    0.000000E+00    0.681000E-02    0.000000E+00   -0.154307E-07   -0.000000E+00   -0.000000E+00    0.000000E+00
     7     2     1    13.0000         3.00000         1.00000             40       0       0       0   0.10951180E+02    0.10000000E+02    0.19759179E+00    0.00000000E+00    0.000000E+00   -0.642763E-08    0.453320E-07    0.000000E+00    0.100000E+00   -0.126584E+02   -0.126584E+02   -0.126584E+02    0.284336E+01    0.284336E+01    0.284336E+01    0.999700E+03    0.130800E-02   -0.000000E+00   -0.000000E+00    0.000000E+00    0.681000E-02    0.000000E+00   -0.154305E-07   -0.000000E+00   -0.000000E+00    0.000000E+00
     8     2     1    15.0000         3.00000         1.00000             41       0       0       0   0.10959491E+02    0.10000000E+02    0.19767330E+00    0.00000000E+00    0.000000E+00   -0.461411E-08    0.391521E-07    0.000000E+00    0.100000E+00   -0.126421E+02   -0.126421E+02   -0.126421E+02    0.284336E+01    0.284336E+01    0.284336E+01    0.999700E+03    0.130800E-02   -0.000000E+00   -0.000000E+00    0.000000E+00    0.681000E-02    0.000000E+00   -0.154304E-07   -0.000000E+00   -0.000000E+00    0.000000E+00
     9     2     1    17.0000         3.00000         1.00000             42       0       0       0   0.10963096E+02    0.10000000E+02    0.19770865E+00    0.00000000E+00    0.000000E+00   -0.169237E-08    0.221617E-07    0.000000E+00    0.100000E+00   -0.128796E+02   -0.128796E+02   -0.128796E+02    0.284336E+01    0.284336E+01    0.284336E+01    0.999700E+03    0.130800E-02   -0.000000E+00   -0.000000E+00    0.000000E+00    0.681000E-02    0.000000E+00   -0.154301E-07   -0.000000E+00   -0.000000E+00    0.000000E+00
    10     2     1    19.0000         3.00000         1.00000             43       0       0       0   0.10965472E+02    0.10000000E+02    0.19773195E+00    0.00000000E+00    0.000000E+00   -0.227599E-09    0.172003E-07    0.000000E+00    0.100000E+00   -0.129158E+02   -0.129158E+02   -0.129158E+02    0.284336E+01    0.284336E+01    0.284336E+01    0.999700E+03    0.130800E-02   -0.000000E+00   -0.000000E+00    0.000000E+00    0.681000E-02    0.000000E+00   -0.154298E-07   -0.000000E+00   -0.000000E+00    0.000000E+00
    11     2     1    21.0000         3.00000         1.00000             44       0       0       0   0.10963880E+02    0.10000000E+02    0.19771634E+00    0.00000000E+00    0.000000E+00    0.812835E-10    0.174701E-07    0.000000E+00    0.100000E+00   -0.129797E+02   -0.129797E+02   -0.129797E+02    0.284336E+01    0.284336E+01    0.284336E+01    0.999700E+03    0.130800E-02   -0.000000E+00   -0.000000E+00    0.000000E+00    0.681000E-02    0.000000E+00   -0.154297E-07   -0.000000E+00   -0.000000E+00    0.000000E+00
    12     2     1    23.0000         3.00000         1.00000             45       0       0       0   0.10965010E+02    0.10000000E+02    0.19772742E+00    0.00000000E+00    0.000000E+00   -0.118608E-08    0.229549E-07    0.000000E+00    0.100000E+00   -0.128518E+02   -0.128518E+02   -0.128518E+02    0.284336E+01    0.284336E+01    0.284336E+01    0.999700E+03    0.130800E-02   -0.000000E+00   -0.000000E+00    0.000000E+00    0.681000E-02    0.000000E+00   -0.154300E-07   -0.000000E+00   -0.000000E+00    0.000000E+00
    13     2     1    25.0000         3.00000         1.00000             46       0       0       0   0.10968025E+02    0.10000000E+02    0.19775699E+00    0.00000000E+00    0.000000E+00   -0.234972E-08    0.300599E-07    0.000000E+00    0.100000E+00   -0.127010E+02   -0.127010E+02   -0.127010E+02    0.284336E+01    0.284336E+01    0.284336E+01    0.999700E+03    0.130800E-02   -0.000000E+00   -0.000000E+00    0.000000E+00    0.681000E-02    0.000000E+00   -0.154305E-07   -0.000000E+00   -0.000000E+00    0.000000E+00
    14     2     1    27.0000         3.00000         1.00000             47       0       0       0   0.10970762E+02    0.10000000E+02    0.19778383E+00    0.00000000E+00    0.000000E+00   -0.447647E-08    0.535420E-07    0.000000E+00    0.100000E+00   -0.123449E+02   -0.123449E+02   -0.123449E+02    0.284336E+01    0.284336E+01    0.284336E+01    0.999700E+03    0.130800E-02   -0.000000E+00   -0.000000E+00    0.000000E+00    0.681000E-02    0.000000E+00   -0.154310E-07   -0.000000E+00   -0.000000E+00    0.000000E+00
    15     2     1    29.0000         3.00000         1.00000             48       0       0       0   0.10974219E+02    0.10000000E+02    0.19781774E+00    0.00000000E+00    0.000000E+00   -0.473890E-08    0.585816E-07    0.000000E+00    0.100000E+00   -0.123064E+02   -0.123064E+02   -0.123064E+02    0.284336E+01    0.284336E+01    0.284336E+01    0.999700E+03    0.130800E-02   -0.000000E+00   -0.000000E+00    0.000000E+00    0.681000E-02    0.000000E+00   -0.154313E-07   -0.000000E+00   -0.000000E+00    0.000000E+00
    16     2     1    31.0000         3.00000         1.00000             49       0       0       0   0.10975769E+02    0.10000000E+02    0.19783293E+00    0.00000000E+00    0.000000E+00   -0.286935E-08    0.763618E-07    0.000000E+00    0.100000E+00   -0.121559E+02   -0.121559E+02   -0.121559E+02    0.284336E+01    0.284336E+01    0.284336E+01    0.999700E+03    0.130800E-02   -0.000000E+00   -0.000000E+00    0.000000E+00    0.681000E-02    0.000000E+00   -0.154315E-07   -0.000000E+00   -0.000000E+00    0.000000E+00
    17     2     1    33.0000         3.00000         1.00000             50       0       0       0   0.10976696E+02    0.10000000E+02    0.19784203E+00    0.00000000E+00    0.000000E+00    0.144891E-08    0.706322E-07    0.000000E+00    0.100000E+00   -0.121740E+02   -0.121740E+02   -0.121740E+02    0.284336E+01    0.284336E+01    0.284336E+01    0.999700E+03    0.130800E-02   -0.000000E+00   -0.000000E+00    0.000000E+00    0.681000E-02    0.000000E+00   -0.154317E-07   -0.000000E+00   -0.000000E+00    0.000000E+00
    18     2     1    35.0000         3.00000         1.00000             51       0       0       0   0.10974786E+02    0.10000000E+02    0.19782330E+00    0.00000000E+00    0.000000E+00    0.952485E-08    0.964009E-07    0.000000E+00    0.100000E+00   -0.120870E+02   -0.120870E+02   -0.120870E+02    0.284336E+01    0.284336E+01    0.284336E+01    0.999700E+03    0.130800E-02   -0.000000E+00   -0.000000E+00    0.000000E+00    0.681000E-02    0.000000E+00   -0.154318E-07   -0.000000E+00   -0.000000E+00    0.000000E+00
    19     2     1    37.0000         3.00000         1.00000             52       0       0       0   0.10970687E+02    0.10000000E+02    0.19778309E+00    0.00000000E+00    0.000000E+00    0.116427E-07    0.107546E-06    0.000000E+00    0.100000E+00   -0.120042E+02   -0.120042E+02   -0.120042E+02    0.284336E+01    0.284336E+01    0.284336E+01    0.999700E+03    0.130800E-02   -0.000000E+00   -0.000000E+00    0.000000E+00    0.681000E-02    0.000000E+00   -0.154319E-07   -0.000000E+00   -0.000000E+00    0.000000E+00
    20     2     1    39.0000         3.00000         1.00000             53       0       0       0   0.10967529E+02    0.10000000E+02    0.19775212E+00    0.00000000E+00    0.000000E+00    0.133080E-07    0.111290E-06    0.000000E+00    0.100000E+00   -0.121702E+02   -0.121702E+02   -0.121702E+02    0.284336E+01    0.284336E+01    0.284336E+01    0.999700E+03    0.130800E-02   -0.000000E+00   -0.000000E+00    0.000000E+00    0.681000E-02    0.000000E+00   -0.154319E-07   -0.000000E+00   -0.000000E+00    0.000000E+00
    21     2     1    41.0000         3.00000         1.00000             54       0       0       0   0.10961856E+02    0.10000000E+02    0.19769649E+00    0.00000000E+00    0.000000E+00    0.161401E-07    0.126674E-06    0.000000E+00    0.100000E+00   -0.120030E+02   -0.120030E+02   -0.120030E+02    0.284336E+01    0.284336E+01    0.284336E+01    0.999700E+03    0.130800E-02   -0.000000E+00   -0.000000E+00    0.000000E+00    0.681000E-02    0.000000E+00   -0.154320E-07   -0.000000E+00   -0.000000E+00    0.000000E+00
    22     2     1    43.0000         3.00000         1.00000             55       0       0       0   0.10957949E+02    0.10000000E+02    0.19765818E+00    0.00000000E+00    0.000000E+00    0.565540E-08    0.168483E-06    0.000000E+00    0.100000E+00   -0.119653E+02   -0.119653E+02   -0.119653E+02    0.284336E+01    0.284336E+01    0.284336E+01    0.999700E+03    0.130800E-02   -0.000000E+00   -0.000000E+00    0.000000E+00    0.681000E-02    0.000000E+00   -0.154320E-07   -0.000000E+00   -0.000000E+00    0.000000E+00
    23     2     1    45.0000         3.00000         1.00000             56       0       0       0   0.10958665E+02    0.10000000E+02    0.19766520E+00    0.00000000E+00    0.000000E+00   -0.218957E-07    0.258837E-06    0.000000E+00    0.100000E+00   -0.116683E+02   -0.116683E+02   -0.116683E+02    0.284336E+01    0.284336E+01    0.284336E+01    0.999700E+03    0.130800E-02   -0.000000E+00   -0.000000E+00    0.000000E+00    0.681000E-02    0.000000E+00   -0.154320E-07   -0.000000E+00   -0.000000E+00    0.000000E+00
    24     2     1    47.0000         3.00000         1.00000             57       0       0       0   0.10963299E+02    0.10000000E+02    0.19771064E+00    0.00000000E+00    0.000000E+00   -0.255842E-07    0.285097E-06    0.000000E+00    0.100000E+00   -0.116066E+02   -0.116066E+02   -0.116066E+02    0.284336E+01    0.284336E+01    0.284336E+01    0.999700E+03    0.130800E-02   -0.000000E+00   -0.000000E+00    0.000000E+00    0.681000E-02    0.000000E+00   -0.154320E-07   -0.000000E+00   -0.000000E+00    0.000000E+00
    25     2     1    49.0000         3.00000         1.00000             58       0       0       0   0.10964292E+02    0.10000000E+02    0.19772038E+00    0.00000000E+00    0.000000E+00   -0.124167E-07    0.401069E-06    0.000000E+00    0.100000E+00   -0.114121E+02   -0.114121E+02   -0.114121E+02    0.284336E+01    0.284336E+01    0.284336E+01    0.999700E+03    0.130800E-02   -0.000000E+00   -0.000000E+00    0.000000E+00    0.681000E-02    0.000000E+00   -0.154321E-07   -0.000000E+00   -0.000000E+00    0.000000E+00