title = "oed_inv"
variables = "x",           "y",           "z","uindex",        "temp","  kz_unit0000005"
zone i=   39, j=    1, k=    1, f=point
   0.8975000E+04   0.2500000E+02   0.2925000E+04       5   0.2257666E+02    0.3400490E+00
   0.8975000E+04   0.2500000E+02   0.2875000E+04       5   0.2614014E+02    0.6609041E+00
   0.8975000E+04   0.2500000E+02   0.2825000E+04       5   0.2967725E+02    0.9430231E+00
   0.8975000E+04   0.2500000E+02   0.2775000E+04       5   0.3317483E+02    0.1166206E+01
   0.8975000E+04   0.2500000E+02   0.2725000E+04       5   0.3661975E+02    0.1309348E+01
   0.8975000E+04   0.2500000E+02   0.2675000E+04       5   0.3999897E+02    0.1350282E+01
   0.8975000E+04   0.2500000E+02   0.2625000E+04       5   0.4329954E+02    0.1265693E+01
   0.8975000E+04   0.2500000E+02   0.2575000E+04       4   0.4691336E+02    0.1001531E+01
   0.8975000E+04   0.2500000E+02   0.2525000E+04       4   0.5093512E+02    0.7079393E+00
   0.8975000E+04   0.2500000E+02   0.2475000E+04       3   0.5426959E+02    0.4652276E+00
   0.8975000E+04   0.2500000E+02   0.2425000E+04       3   0.5686478E+02    0.2888939E+00
   0.8975000E+04   0.2500000E+02   0.2375000E+04       3   0.5941044E+02    0.1285745E+00
   0.8975000E+04   0.2500000E+02   0.2325000E+04       3   0.6190504E+02   -0.1598664E-01
   0.8975000E+04   0.2500000E+02   0.2275000E+04       3   0.6434727E+02   -0.1452304E+00
   0.8975000E+04   0.2500000E+02   0.2225000E+04       3   0.6673598E+02   -0.2597501E+00
   0.8975000E+04   0.2500000E+02   0.2175000E+04       3   0.6907021E+02   -0.3602600E+00
   0.8975000E+04   0.2500000E+02   0.2125000E+04       3   0.7134923E+02   -0.4475657E+00
   0.8975000E+04   0.2500000E+02   0.2075000E+04       3   0.7357249E+02   -0.5225369E+00
   0.8975000E+04   0.2500000E+02   0.2025000E+04       3   0.7573965E+02   -0.5860829E+00
   0.8975000E+04   0.2500000E+02   0.1975000E+04       3   0.7785060E+02   -0.6391314E+00
   0.8975000E+04   0.2500000E+02   0.1925000E+04       3   0.7990540E+02   -0.6826099E+00
   0.8975000E+04   0.2500000E+02   0.1875000E+04       3   0.8190432E+02   -0.7174304E+00
   0.8975000E+04   0.2500000E+02   0.1825000E+04       3   0.8384784E+02   -0.7444769E+00
   0.8975000E+04   0.2500000E+02   0.1775000E+04       3   0.8573659E+02   -0.7645952E+00
   0.8975000E+04   0.2500000E+02   0.1725000E+04       3   0.8757138E+02   -0.7785857E+00
   0.8975000E+04   0.2500000E+02   0.1675000E+04       3   0.8935318E+02   -0.7871978E+00
   0.8975000E+04   0.2500000E+02   0.1625000E+04       3   0.9108307E+02   -0.7911259E+00
   0.8975000E+04   0.2500000E+02   0.1575000E+04       3   0.9276225E+02   -0.7910078E+00
   0.8975000E+04   0.2500000E+02   0.1525000E+04       3   0.9439203E+02   -0.7874236E+00
   0.8975000E+04   0.2500000E+02   0.1475000E+04       3   0.9597375E+02   -0.7808957E+00
   0.8975000E+04   0.2500000E+02   0.1425000E+04       3   0.9750884E+02   -0.7718899E+00
   0.8975000E+04   0.2500000E+02   0.1375000E+04       3   0.9899873E+02   -0.7608173E+00
   0.8975000E+04   0.2500000E+02   0.1325000E+04       3   0.1004448E+03   -0.7480355E+00
   0.8975000E+04   0.2500000E+02   0.1275000E+04       3   0.1018486E+03   -0.7338516E+00
   0.8975000E+04   0.2500000E+02   0.1225000E+04       3   0.1032114E+03   -0.7185241E+00
   0.8975000E+04   0.2500000E+02   0.1175000E+04       3   0.1045346E+03   -0.7022654E+00
   0.8975000E+04   0.2500000E+02   0.1125000E+04       3   0.1058194E+03   -0.6852441E+00
   0.8975000E+04   0.2500000E+02   0.1075000E+04       3   0.1070671E+03   -0.6675864E+00
   0.8975000E+04   0.2500000E+02   0.1025000E+04       3   0.1082790E+03   -0.6493778E+00
