title = "oed_inv"
variables = "x",           "y",           "z","uindex",        "temp","  kz_unit0000005"
zone i=   39, j=    1, k=    1, f=point
   0.8975000E+04   0.2500000E+02   0.2925000E+04       5   0.2234856E+02    0.7458844E-01
   0.8975000E+04   0.2500000E+02   0.2875000E+04       5   0.2569615E+02    0.1453270E+00
   0.8975000E+04   0.2500000E+02   0.2825000E+04       5   0.2904180E+02    0.2084015E+00
   0.8975000E+04   0.2500000E+02   0.2775000E+04       5   0.3238451E+02    0.2600698E+00
   0.8975000E+04   0.2500000E+02   0.2725000E+04       5   0.3572327E+02    0.2966990E+00
   0.8975000E+04   0.2500000E+02   0.2675000E+04       5   0.3905701E+02    0.3148016E+00
   0.8975000E+04   0.2500000E+02   0.2625000E+04       5   0.4238464E+02    0.3110724E+00
   0.8975000E+04   0.2500000E+02   0.2575000E+04       4   0.4612367E+02    0.2788131E+00
   0.8975000E+04   0.2500000E+02   0.2525000E+04       4   0.5028651E+02    0.2420667E+00
   0.8975000E+04   0.2500000E+02   0.2475000E+04       3   0.5373879E+02    0.2111350E+00
   0.8975000E+04   0.2500000E+02   0.2425000E+04       3   0.5642189E+02    0.1876828E+00
   0.8975000E+04   0.2500000E+02   0.2375000E+04       3   0.5904970E+02    0.1653776E+00
   0.8975000E+04   0.2500000E+02   0.2325000E+04       3   0.6162055E+02    0.1442808E+00
   0.8975000E+04   0.2500000E+02   0.2275000E+04       3   0.6413308E+02    0.1244350E+00
   0.8975000E+04   0.2500000E+02   0.2225000E+04       3   0.6658616E+02    0.1058648E+00
   0.8975000E+04   0.2500000E+02   0.2175000E+04       3   0.6897895E+02    0.8857820E-01
   0.8975000E+04   0.2500000E+02   0.2125000E+04       3   0.7131088E+02    0.7256860E-01
   0.8975000E+04   0.2500000E+02   0.2075000E+04       3   0.7358162E+02    0.5781636E-01
   0.8975000E+04   0.2500000E+02   0.2025000E+04       3   0.7579109E+02    0.4429072E-01
   0.8975000E+04   0.2500000E+02   0.1975000E+04       3   0.7793945E+02    0.3195169E-01
   0.8975000E+04   0.2500000E+02   0.1925000E+04       3   0.8002709E+02    0.2075187E-01
   0.8975000E+04   0.2500000E+02   0.1875000E+04       3   0.8205459E+02    0.1063812E-01
   0.8975000E+04   0.2500000E+02   0.1825000E+04       3   0.8402274E+02    0.1553164E-02
   0.8975000E+04   0.2500000E+02   0.1775000E+04       3   0.8593250E+02   -0.6562989E-02
   0.8975000E+04   0.2500000E+02   0.1725000E+04       3   0.8778501E+02   -0.1377176E-01
   0.8975000E+04   0.2500000E+02   0.1675000E+04       3   0.8958152E+02   -0.2013488E-01
   0.8975000E+04   0.2500000E+02   0.1625000E+04       3   0.9132341E+02   -0.2571348E-01
   0.8975000E+04   0.2500000E+02   0.1575000E+04       3   0.9301217E+02   -0.3056725E-01
   0.8975000E+04   0.2500000E+02   0.1525000E+04       3   0.9464934E+02   -0.3475379E-01
   0.8975000E+04   0.2500000E+02   0.1475000E+04       3   0.9623652E+02   -0.3832812E-01
   0.8975000E+04   0.2500000E+02   0.1425000E+04       3   0.9777535E+02   -0.4134225E-01
   0.8975000E+04   0.2500000E+02   0.1375000E+04       3   0.9926746E+02   -0.4384486E-01
   0.8975000E+04   0.2500000E+02   0.1325000E+04       3   0.1007145E+03   -0.4588114E-01
   0.8975000E+04   0.2500000E+02   0.1275000E+04       3   0.1021179E+03   -0.4749264E-01
   0.8975000E+04   0.2500000E+02   0.1225000E+04       3   0.1034794E+03   -0.4871719E-01
   0.8975000E+04   0.2500000E+02   0.1175000E+04       3   0.1048003E+03   -0.4958888E-01
   0.8975000E+04   0.2500000E+02   0.1125000E+04       3   0.1060820E+03   -0.5013809E-01
   0.8975000E+04   0.2500000E+02   0.1075000E+04       3   0.1073259E+03   -0.5039154E-01
   0.8975000E+04   0.2500000E+02   0.1025000E+04       3   0.1085333E+03   -0.5037228E-01
