title = "oed_inv"
variables = "x",           "y",           "z","uindex",        "temp","  kz_unit0000005"
zone i=   39, j=    1, k=    1, f=point
   0.8975000E+04   0.2500000E+02   0.2925000E+04       5   0.2258518E+02    0.3338875E+00
   0.8975000E+04   0.2500000E+02   0.2875000E+04       5   0.2615670E+02    0.6488765E+00
   0.8975000E+04   0.2500000E+02   0.2825000E+04       5   0.2970088E+02    0.9256291E+00
   0.8975000E+04   0.2500000E+02   0.2775000E+04       5   0.3320404E+02    0.1143975E+01
   0.8975000E+04   0.2500000E+02   0.2725000E+04       5   0.3665253E+02    0.1282598E+01
   0.8975000E+04   0.2500000E+02   0.2675000E+04       5   0.4003272E+02    0.1318826E+01
   0.8975000E+04   0.2500000E+02   0.2625000E+04       5   0.4333109E+02    0.1228524E+01
   0.8975000E+04   0.2500000E+02   0.2575000E+04       4   0.4693811E+02    0.9554905E+00
   0.8975000E+04   0.2500000E+02   0.2525000E+04       4   0.5095233E+02    0.6523890E+00
   0.8975000E+04   0.2500000E+02   0.2475000E+04       3   0.5428057E+02    0.4020217E+00
   0.8975000E+04   0.2500000E+02   0.2425000E+04       3   0.5687125E+02    0.2207805E+00
   0.8975000E+04   0.2500000E+02   0.2375000E+04       3   0.5941280E+02    0.5661380E-01
   0.8975000E+04   0.2500000E+02   0.2325000E+04       3   0.6190371E+02   -0.9083474E-01
   0.8975000E+04   0.2500000E+02   0.2275000E+04       3   0.6434265E+02   -0.2221050E+00
   0.8975000E+04   0.2500000E+02   0.2225000E+04       3   0.6672844E+02   -0.3378864E+00
   0.8975000E+04   0.2500000E+02   0.2175000E+04       3   0.6906013E+02   -0.4389851E+00
   0.8975000E+04   0.2500000E+02   0.2125000E+04       3   0.7133694E+02   -0.5262939E+00
   0.8975000E+04   0.2500000E+02   0.2075000E+04       3   0.7355831E+02   -0.6007644E+00
   0.8975000E+04   0.2500000E+02   0.2025000E+04       3   0.7572388E+02   -0.6633820E+00
   0.8975000E+04   0.2500000E+02   0.1975000E+04       3   0.7783350E+02   -0.7151444E+00
   0.8975000E+04   0.2500000E+02   0.1925000E+04       3   0.7988721E+02   -0.7570430E+00
   0.8975000E+04   0.2500000E+02   0.1875000E+04       3   0.8188528E+02   -0.7900476E+00
   0.8975000E+04   0.2500000E+02   0.1825000E+04       3   0.8382814E+02   -0.8150941E+00
   0.8975000E+04   0.2500000E+02   0.1775000E+04       3   0.8571641E+02   -0.8330745E+00
   0.8975000E+04   0.2500000E+02   0.1725000E+04       3   0.8755088E+02   -0.8448298E+00
   0.8975000E+04   0.2500000E+02   0.1675000E+04       3   0.8933248E+02   -0.8511448E+00
   0.8975000E+04   0.2500000E+02   0.1625000E+04       3   0.9106230E+02   -0.8527447E+00
   0.8975000E+04   0.2500000E+02   0.1575000E+04       3   0.9274152E+02   -0.8502932E+00
   0.8975000E+04   0.2500000E+02   0.1525000E+04       3   0.9437141E+02   -0.8443925E+00
   0.8975000E+04   0.2500000E+02   0.1475000E+04       3   0.9595333E+02   -0.8355830E+00
   0.8975000E+04   0.2500000E+02   0.1425000E+04       3   0.9748868E+02   -0.8243454E+00
   0.8975000E+04   0.2500000E+02   0.1375000E+04       3   0.9897887E+02   -0.8111020E+00
   0.8975000E+04   0.2500000E+02   0.1325000E+04       3   0.1004253E+03   -0.7962193E+00
   0.8975000E+04   0.2500000E+02   0.1275000E+04       3   0.1018295E+03   -0.7800103E+00
   0.8975000E+04   0.2500000E+02   0.1225000E+04       3   0.1031927E+03   -0.7627371E+00
   0.8975000E+04   0.2500000E+02   0.1175000E+04       3   0.1045163E+03   -0.7446138E+00
   0.8975000E+04   0.2500000E+02   0.1125000E+04       3   0.1058016E+03   -0.7258082E+00
   0.8975000E+04   0.2500000E+02   0.1075000E+04       3   0.1070498E+03   -0.7064444E+00
   0.8975000E+04   0.2500000E+02   0.1025000E+04       3   0.1082621E+03   -0.6866036E+00
