title = "oed_inv"
variables = "x",           "y",           "z","uindex",        "temp","  kz_unit0000005"
zone i=   39, j=    1, k=    1, f=point
   0.8975000E+04   0.2500000E+02   0.2925000E+04       5   0.2241892E+02    0.1983935E+00
   0.8975000E+04   0.2500000E+02   0.2875000E+04       5   0.2583322E+02    0.3863945E+00
   0.8975000E+04   0.2500000E+02   0.2825000E+04       5   0.2923830E+02    0.5536711E+00
   0.8975000E+04   0.2500000E+02   0.2775000E+04       5   0.3262960E+02    0.6900144E+00
   0.8975000E+04   0.2500000E+02   0.2725000E+04       5   0.3600260E+02    0.7854040E+00
   0.8975000E+04   0.2500000E+02   0.2675000E+04       5   0.3935287E+02    0.8300757E+00
   0.8975000E+04   0.2500000E+02   0.2625000E+04       5   0.4267611E+02    0.8145938E+00
   0.8975000E+04   0.2500000E+02   0.2575000E+04       4   0.4638317E+02    0.7192505E+00
   0.8975000E+04   0.2500000E+02   0.2525000E+04       4   0.5050964E+02    0.6110041E+00
   0.8975000E+04   0.2500000E+02   0.2475000E+04       3   0.5393133E+02    0.5201023E+00
   0.8975000E+04   0.2500000E+02   0.2425000E+04       3   0.5659128E+02    0.4514831E+00
   0.8975000E+04   0.2500000E+02   0.2375000E+04       3   0.5919711E+02    0.3865850E+00
   0.8975000E+04   0.2500000E+02   0.2325000E+04       3   0.6174725E+02    0.3256137E+00
   0.8975000E+04   0.2500000E+02   0.2275000E+04       3   0.6424035E+02    0.2686991E+00
   0.8975000E+04   0.2500000E+02   0.2225000E+04       3   0.6667532E+02    0.2159031E+00
   0.8975000E+04   0.2500000E+02   0.2175000E+04       3   0.6905134E+02    0.1672268E+00
   0.8975000E+04   0.2500000E+02   0.2125000E+04       3   0.7136780E+02    0.1226190E+00
   0.8975000E+04   0.2500000E+02   0.2075000E+04       3   0.7362437E+02    0.8198413E-01
   0.8975000E+04   0.2500000E+02   0.2025000E+04       3   0.7582092E+02    0.4519015E-01
   0.8975000E+04   0.2500000E+02   0.1975000E+04       3   0.7795757E+02    0.1207621E-01
   0.8975000E+04   0.2500000E+02   0.1925000E+04       3   0.8003465E+02   -0.1754053E-01
   0.8975000E+04   0.2500000E+02   0.1875000E+04       3   0.8205268E+02   -0.4385855E-01
   0.8975000E+04   0.2500000E+02   0.1825000E+04       3   0.8401240E+02   -0.6708634E-01
   0.8975000E+04   0.2500000E+02   0.1775000E+04       3   0.8591470E+02   -0.8743747E-01
   0.8975000E+04   0.2500000E+02   0.1725000E+04       3   0.8776064E+02   -0.1051264E+00
   0.8975000E+04   0.2500000E+02   0.1675000E+04       3   0.8955141E+02   -0.1203649E+00
   0.8975000E+04   0.2500000E+02   0.1625000E+04       3   0.9128834E+02   -0.1333591E+00
   0.8975000E+04   0.2500000E+02   0.1575000E+04       3   0.9297283E+02   -0.1443073E+00
   0.8975000E+04   0.2500000E+02   0.1525000E+04       3   0.9460638E+02   -0.1533979E+00
   0.8975000E+04   0.2500000E+02   0.1475000E+04       3   0.9619053E+02   -0.1608082E+00
   0.8975000E+04   0.2500000E+02   0.1425000E+04       3   0.9772687E+02   -0.1667033E+00
   0.8975000E+04   0.2500000E+02   0.1375000E+04       3   0.9921696E+02   -0.1712355E+00
   0.8975000E+04   0.2500000E+02   0.1325000E+04       3   0.1006624E+03   -0.1745440E+00
   0.8975000E+04   0.2500000E+02   0.1275000E+04       3   0.1020647E+03   -0.1767546E+00
   0.8975000E+04   0.2500000E+02   0.1225000E+04       3   0.1034253E+03   -0.1779801E+00
   0.8975000E+04   0.2500000E+02   0.1175000E+04       3   0.1047457E+03   -0.1783198E+00
   0.8975000E+04   0.2500000E+02   0.1125000E+04       3   0.1060273E+03   -0.1778605E+00
   0.8975000E+04   0.2500000E+02   0.1075000E+04       3   0.1072713E+03   -0.1766760E+00
   0.8975000E+04   0.2500000E+02   0.1025000E+04       3   0.1084789E+03   -0.1748282E+00
