title = "oed_inv"
variables = "x",           "y",           "z","uindex",        "temp","  kz_unit0000005"
zone i=   39, j=    1, k=    1, f=point
   0.8975000E+04   0.2500000E+02   0.2925000E+04       5   0.2258409E+02    0.3348495E+00
   0.8975000E+04   0.2500000E+02   0.2875000E+04       5   0.2615458E+02    0.6507520E+00
   0.8975000E+04   0.2500000E+02   0.2825000E+04       5   0.2969785E+02    0.9283334E+00
   0.8975000E+04   0.2500000E+02   0.2775000E+04       5   0.3320030E+02    0.1147412E+01
   0.8975000E+04   0.2500000E+02   0.2725000E+04       5   0.3664834E+02    0.1286693E+01
   0.8975000E+04   0.2500000E+02   0.2675000E+04       5   0.4002841E+02    0.1323569E+01
   0.8975000E+04   0.2500000E+02   0.2625000E+04       5   0.4332707E+02    0.1234009E+01
   0.8975000E+04   0.2500000E+02   0.2575000E+04       4   0.4693499E+02    0.9620916E+00
   0.8975000E+04   0.2500000E+02   0.2525000E+04       4   0.5095019E+02    0.6601848E+00
   0.8975000E+04   0.2500000E+02   0.2475000E+04       3   0.5427924E+02    0.4107783E+00
   0.8975000E+04   0.2500000E+02   0.2425000E+04       3   0.5687051E+02    0.2301465E+00
   0.8975000E+04   0.2500000E+02   0.2375000E+04       3   0.5941260E+02    0.6645059E-01
   0.8975000E+04   0.2500000E+02   0.2325000E+04       3   0.6190399E+02   -0.8065228E-01
   0.8975000E+04   0.2500000E+02   0.2275000E+04       3   0.6434335E+02   -0.2116887E+00
   0.8975000E+04   0.2500000E+02   0.2225000E+04       3   0.6672953E+02   -0.3273351E+00
   0.8975000E+04   0.2500000E+02   0.2175000E+04       3   0.6906154E+02   -0.4283855E+00
   0.8975000E+04   0.2500000E+02   0.2125000E+04       3   0.7133864E+02   -0.5157213E+00
   0.8975000E+04   0.2500000E+02   0.2075000E+04       3   0.7356025E+02   -0.5902830E+00
   0.8975000E+04   0.2500000E+02   0.2025000E+04       3   0.7572603E+02   -0.6530462E+00
   0.8975000E+04   0.2500000E+02   0.1975000E+04       3   0.7783581E+02   -0.7049993E+00
   0.8975000E+04   0.2500000E+02   0.1925000E+04       3   0.7988967E+02   -0.7471254E+00
   0.8975000E+04   0.2500000E+02   0.1875000E+04       3   0.8188784E+02   -0.7803868E+00
   0.8975000E+04   0.2500000E+02   0.1825000E+04       3   0.8383078E+02   -0.8057126E+00
   0.8975000E+04   0.2500000E+02   0.1775000E+04       3   0.8571911E+02   -0.8239888E+00
   0.8975000E+04   0.2500000E+02   0.1725000E+04       3   0.8755362E+02   -0.8360513E+00
   0.8975000E+04   0.2500000E+02   0.1675000E+04       3   0.8933525E+02   -0.8426802E+00
   0.8975000E+04   0.2500000E+02   0.1625000E+04       3   0.9106507E+02   -0.8445968E+00
   0.8975000E+04   0.2500000E+02   0.1575000E+04       3   0.9274428E+02   -0.8424616E+00
   0.8975000E+04   0.2500000E+02   0.1525000E+04       3   0.9437415E+02   -0.8368738E+00
   0.8975000E+04   0.2500000E+02   0.1475000E+04       3   0.9595605E+02   -0.8283716E+00
   0.8975000E+04   0.2500000E+02   0.1425000E+04       3   0.9749135E+02   -0.8174339E+00
   0.8975000E+04   0.2500000E+02   0.1375000E+04       3   0.9898150E+02   -0.8044815E+00
   0.8975000E+04   0.2500000E+02   0.1325000E+04       3   0.1004279E+03   -0.7898799E+00
   0.8975000E+04   0.2500000E+02   0.1275000E+04       3   0.1018320E+03   -0.7739413E+00
   0.8975000E+04   0.2500000E+02   0.1225000E+04       3   0.1031952E+03   -0.7569275E+00
   0.8975000E+04   0.2500000E+02   0.1175000E+04       3   0.1045187E+03   -0.7390523E+00
   0.8975000E+04   0.2500000E+02   0.1125000E+04       3   0.1058040E+03   -0.7204838E+00
   0.8975000E+04   0.2500000E+02   0.1075000E+04       3   0.1070521E+03   -0.7013463E+00
   0.8975000E+04   0.2500000E+02   0.1025000E+04       3   0.1082643E+03   -0.6817218E+00
