title = "salt_final_chem"
variables = "x",            "y",            "z","uindex",  "i",  "j",  "k", "obsz","obst","cindex",            "head",           "temp",           "pres",           "satn",           "epot",           "v_abs",           "tsal",      "conc0001"
zone i=   40, j=    1, k=   40, f=point
   0.500000        0.500000        0.500000             1     1     1     1       0       0       0    0.40054435E+02    0.19000000E+02    0.48740134E+00    0.00000000E+00    0.00000000E+00    0.23495346E-08    0.24975354E-07    0.24975354E-07 
    1.50000        0.500000        0.500000             1     2     1     1       0       0       0    0.40054452E+02    0.19000000E+02    0.48740151E+00    0.00000000E+00    0.00000000E+00    0.28393901E-08    0.30412714E-07    0.30412714E-07 
    2.50000        0.500000        0.500000             1     3     1     1       0       0       0    0.40054484E+02    0.19000000E+02    0.48740182E+00    0.00000000E+00    0.00000000E+00    0.39409672E-08    0.41052000E-07    0.41052000E-07 
    3.50000        0.500000        0.500000             1     4     1     1       0       0       0    0.40054529E+02    0.19000000E+02    0.48740226E+00    0.00000000E+00    0.00000000E+00    0.47971872E-08    0.56298574E-07    0.56298574E-07 
    4.50000        0.500000        0.500000             1     5     1     1       0       0       0    0.40054581E+02    0.19000000E+02    0.48740277E+00    0.00000000E+00    0.00000000E+00    0.52586974E-08    0.75044208E-07    0.75044208E-07 
    5.50000        0.500000        0.500000             1     6     1     1       0       0       0    0.40054636E+02    0.19000000E+02    0.48740331E+00    0.00000000E+00    0.00000000E+00    0.52610996E-08    0.95611542E-07    0.95611542E-07 
    6.50000        0.500000        0.500000             1     7     1     1       0       0       0    0.40054689E+02    0.19000000E+02    0.48740383E+00    0.00000000E+00    0.00000000E+00    0.48035706E-08    0.11588147E-06    0.11588147E-06 
    7.50000        0.500000        0.500000             1     8     1     1       0       0       0    0.40054733E+02    0.19000000E+02    0.48740427E+00    0.00000000E+00    0.00000000E+00    0.39492157E-08    0.13358808E-06    0.13358808E-06 
    8.50000        0.500000        0.500000             1     9     1     1       0       0       0    0.40054766E+02    0.19000000E+02    0.48740458E+00    0.00000000E+00    0.00000000E+00    0.28470819E-08    0.14667957E-06    0.14667957E-06 
    9.50000        0.500000        0.500000             1    10     1     1       0       0       0    0.40054783E+02    0.19000000E+02    0.48740475E+00    0.00000000E+00    0.00000000E+00    0.18634531E-08    0.15362859E-06    0.15362859E-06 
    10.5000        0.500000        0.500000             1    11     1     1       0       0       0    0.40054783E+02    0.19000000E+02    0.48740475E+00    0.00000000E+00    0.00000000E+00    0.18634524E-08    0.15362860E-06    0.15362860E-06 
    11.5000        0.500000        0.500000             1    12     1     1       0       0       0    0.40054766E+02    0.19000000E+02    0.48740458E+00    0.00000000E+00    0.00000000E+00    0.28470806E-08    0.14667960E-06    0.14667960E-06 
    12.5000        0.500000        0.500000             1    13     1     1       0       0       0    0.40054733E+02    0.19000000E+02    0.48740427E+00    0.00000000E+00    0.00000000E+00    0.39492144E-08    0.13358812E-06    0.13358812E-06 
    13.5000        0.500000        0.500000             1    14     1     1       0       0       0    0.40054689E+02    0.19000000E+02    0.48740383E+00    0.00000000E+00    0.00000000E+00    0.48035695E-08    0.11588152E-06    0.11588152E-06 
    14.5000        0.500000        0.500000             1    15     1     1       0       0       0    0.40054636E+02    0.19000000E+02    0.48740331E+00    0.00000000E+00    0.00000000E+00    0.52610987E-08    0.95611588E-07    0.95611588E-07 
    15.5000        0.500000        0.500000             1    16     1     1       0       0       0    0.40054581E+02    0.19000000E+02    0.48740277E+00    0.00000000E+00    0.00000000E+00    0.52586968E-08    0.75044246E-07    0.75044246E-07 
    16.5000        0.500000        0.500000             1    17     1     1       0       0       0    0.40054529E+02    0.19000000E+02    0.48740226E+00    0.00000000E+00    0.00000000E+00    0.47971868E-08    0.56298602E-07    0.56298602E-07 
    17.5000        0.500000        0.500000             1    18     1     1       0       0       0    0.40054484E+02    0.19000000E+02    0.48740182E+00    0.00000000E+00    0.00000000E+00    0.39409670E-08    0.41052018E-07    0.41052018E-07 
    18.5000        0.500000        0.500000             1    19     1     1       0       0       0    0.40054452E+02    0.19000000E+02    0.48740151E+00    0.00000000E+00    0.00000000E+00    0.28393900E-08    0.30412725E-07    0.30412725E-07 
    19.5000        0.500000        0.500000             1    20     1     1       0       0       0    0.40054435E+02    0.19000000E+02    0.48740134E+00    0.00000000E+00    0.00000000E+00    0.18574686E-08    0.24975359E-07    0.24975359E-07 
    20.5000        0.500000        0.500000             1    21     1     1       0       0       0    0.40054435E+02    0.19000000E+02    0.48740134E+00    0.00000000E+00    0.00000000E+00    0.18574684E-08    0.24975356E-07    0.24975356E-07 
    21.5000        0.500000        0.500000             1    22     1     1       0       0       0    0.40054452E+02    0.19000000E+02    0.48740151E+00    0.00000000E+00    0.00000000E+00    0.28393897E-08    0.30412715E-07    0.30412715E-07 
    22.5000        0.500000        0.500000             1    23     1     1       0       0       0    0.40054484E+02    0.19000000E+02    0.48740182E+00    0.00000000E+00    0.00000000E+00    0.39409668E-08    0.41052001E-07    0.41052001E-07 
    23.5000        0.500000        0.500000             1    24     1     1       0       0       0    0.40054529E+02    0.19000000E+02    0.48740226E+00    0.00000000E+00    0.00000000E+00    0.47971868E-08    0.56298574E-07    0.56298574E-07 
    24.5000        0.500000        0.500000             1    25     1     1       0       0       0    0.40054581E+02    0.19000000E+02    0.48740277E+00    0.00000000E+00    0.00000000E+00    0.52586970E-08    0.75044208E-07    0.75044208E-07 
    25.5000        0.500000        0.500000             1    26     1     1       0       0       0    0.40054636E+02    0.19000000E+02    0.48740331E+00    0.00000000E+00    0.00000000E+00    0.52610992E-08    0.95611542E-07    0.95611542E-07 
    26.5000        0.500000        0.500000             1    27     1     1       0       0       0    0.40054689E+02    0.19000000E+02    0.48740383E+00    0.00000000E+00    0.00000000E+00    0.48035703E-08    0.11588147E-06    0.11588147E-06 
    27.5000        0.500000        0.500000             1    28     1     1       0       0       0    0.40054733E+02    0.19000000E+02    0.48740427E+00    0.00000000E+00    0.00000000E+00    0.39492154E-08    0.13358807E-06    0.13358807E-06 
    28.5000        0.500000        0.500000             1    29     1     1       0       0       0    0.40054766E+02    0.19000000E+02    0.48740458E+00    0.00000000E+00    0.00000000E+00    0.28470817E-08    0.14667957E-06    0.14667957E-06 
    29.5000        0.500000        0.500000             1    30     1     1       0       0       0    0.40054783E+02    0.19000000E+02    0.48740475E+00    0.00000000E+00    0.00000000E+00    0.18634530E-08    0.15362858E-06    0.15362858E-06 
    30.5000        0.500000        0.500000             1    31     1     1       0       0       0    0.40054783E+02    0.19000000E+02    0.48740475E+00    0.00000000E+00    0.00000000E+00    0.18634523E-08    0.15362860E-06    0.15362860E-06 
    31.5000        0.500000        0.500000             1    32     1     1       0       0       0    0.40054766E+02    0.19000000E+02    0.48740458E+00    0.00000000E+00    0.00000000E+00    0.28470805E-08    0.14667960E-06    0.14667960E-06 
    32.5000        0.500000        0.500000             1    33     1     1       0       0       0    0.40054733E+02    0.19000000E+02    0.48740427E+00    0.00000000E+00    0.00000000E+00    0.39492142E-08    0.13358812E-06    0.13358812E-06 
    33.5000        0.500000        0.500000             1    34     1     1       0       0       0    0.40054689E+02    0.19000000E+02    0.48740383E+00    0.00000000E+00    0.00000000E+00    0.48035692E-08    0.11588152E-06    0.11588152E-06 
    34.5000        0.500000        0.500000             1    35     1     1       0       0       0    0.40054636E+02    0.19000000E+02    0.48740331E+00    0.00000000E+00    0.00000000E+00    0.52610983E-08    0.95611588E-07    0.95611588E-07 
    35.5000        0.500000        0.500000             1    36     1     1       0       0       0    0.40054581E+02    0.19000000E+02    0.48740277E+00    0.00000000E+00    0.00000000E+00    0.52586964E-08    0.75044246E-07    0.75044246E-07 
    36.5000        0.500000        0.500000             1    37     1     1       0       0       0    0.40054529E+02    0.19000000E+02    0.48740226E+00    0.00000000E+00    0.00000000E+00    0.47971864E-08    0.56298602E-07    0.56298602E-07 
    37.5000        0.500000        0.500000             1    38     1     1       0       0       0    0.40054484E+02    0.19000000E+02    0.48740182E+00    0.00000000E+00    0.00000000E+00    0.39409666E-08    0.41052019E-07    0.41052019E-07 
    38.5000        0.500000        0.500000             1    39     1     1       0       0       0    0.40054452E+02    0.19000000E+02    0.48740151E+00    0.00000000E+00    0.00000000E+00    0.28393896E-08    0.30412726E-07    0.30412726E-07 
    39.5000        0.500000        0.500000             1    40     1     1       0       0       0    0.40054435E+02    0.19000000E+02    0.48740134E+00    0.00000000E+00    0.00000000E+00    0.23495342E-08    0.24975362E-07    0.24975362E-07 
   0.500000        0.500000         1.50000             1     1     1     2       0       0       0    0.40053859E+02    0.19000000E+02    0.47760157E+00    0.00000000E+00    0.00000000E+00    0.31534154E-08    0.65930922E-07    0.65930922E-07 
    1.50000        0.500000         1.50000             1     2     1     2       0       0       0    0.40053878E+02    0.19000000E+02    0.47760175E+00    0.00000000E+00    0.00000000E+00    0.35206852E-08    0.80713697E-07    0.80713697E-07 
    2.50000        0.500000         1.50000             1     3     1     2       0       0       0    0.40053913E+02    0.19000000E+02    0.47760210E+00    0.00000000E+00    0.00000000E+00    0.45170548E-08    0.10969239E-06    0.10969239E-06 
    3.50000        0.500000         1.50000             1     4     1     2       0       0       0    0.40053962E+02    0.19000000E+02    0.47760258E+00    0.00000000E+00    0.00000000E+00    0.53318753E-08    0.15132763E-06    0.15132763E-06 
    4.50000        0.500000         1.50000             1     5     1     2       0       0       0    0.40054020E+02    0.19000000E+02    0.47760315E+00    0.00000000E+00    0.00000000E+00    0.57802532E-08    0.20266318E-06    0.20266318E-06 
    5.50000        0.500000         1.50000             1     6     1     2       0       0       0    0.40054080E+02    0.19000000E+02    0.47760374E+00    0.00000000E+00    0.00000000E+00    0.57832950E-08    0.25913734E-06    0.25913734E-06 
    6.50000        0.500000         1.50000             1     7     1     2       0       0       0    0.40054138E+02    0.19000000E+02    0.47760430E+00    0.00000000E+00    0.00000000E+00    0.53400526E-08    0.31491817E-06    0.31491817E-06 
    7.50000        0.500000         1.50000             1     8     1     2       0       0       0    0.40054187E+02    0.19000000E+02    0.47760479E+00    0.00000000E+00    0.00000000E+00    0.45279555E-08    0.36372555E-06    0.36372555E-06 
    8.50000        0.500000         1.50000             1     9     1     2       0       0       0    0.40054223E+02    0.19000000E+02    0.47760514E+00    0.00000000E+00    0.00000000E+00    0.35316332E-08    0.39985118E-06    0.39985118E-06 
    9.50000        0.500000         1.50000             1    10     1     2       0       0       0    0.40054241E+02    0.19000000E+02    0.47760532E+00    0.00000000E+00    0.00000000E+00    0.27394227E-08    0.41903843E-06    0.41903843E-06 
    10.5000        0.500000         1.50000             1    11     1     2       0       0       0    0.40054241E+02    0.19000000E+02    0.47760532E+00    0.00000000E+00    0.00000000E+00    0.27394222E-08    0.41903846E-06    0.41903846E-06 
    11.5000        0.500000         1.50000             1    12     1     2       0       0       0    0.40054223E+02    0.19000000E+02    0.47760514E+00    0.00000000E+00    0.00000000E+00    0.35316322E-08    0.39985127E-06    0.39985127E-06 
    12.5000        0.500000         1.50000             1    13     1     2       0       0       0    0.40054187E+02    0.19000000E+02    0.47760479E+00    0.00000000E+00    0.00000000E+00    0.45279543E-08    0.36372567E-06    0.36372567E-06 
    13.5000        0.500000         1.50000             1    14     1     2       0       0       0    0.40054138E+02    0.19000000E+02    0.47760430E+00    0.00000000E+00    0.00000000E+00    0.53400515E-08    0.31491830E-06    0.31491830E-06 
    14.5000        0.500000         1.50000             1    15     1     2       0       0       0    0.40054080E+02    0.19000000E+02    0.47760374E+00    0.00000000E+00    0.00000000E+00    0.57832941E-08    0.25913746E-06    0.25913746E-06 
    15.5000        0.500000         1.50000             1    16     1     2       0       0       0    0.40054020E+02    0.19000000E+02    0.47760315E+00    0.00000000E+00    0.00000000E+00    0.57802525E-08    0.20266328E-06    0.20266328E-06 
    16.5000        0.500000         1.50000             1    17     1     2       0       0       0    0.40053962E+02    0.19000000E+02    0.47760258E+00    0.00000000E+00    0.00000000E+00    0.53318748E-08    0.15132770E-06    0.15132770E-06 
    17.5000        0.500000         1.50000             1    18     1     2       0       0       0    0.40053913E+02    0.19000000E+02    0.47760210E+00    0.00000000E+00    0.00000000E+00    0.45170545E-08    0.10969244E-06    0.10969244E-06 
    18.5000        0.500000         1.50000             1    19     1     2       0       0       0    0.40053878E+02    0.19000000E+02    0.47760175E+00    0.00000000E+00    0.00000000E+00    0.35206850E-08    0.80713724E-07    0.80713724E-07 
    19.5000        0.500000         1.50000             1    20     1     2       0       0       0    0.40053859E+02    0.19000000E+02    0.47760157E+00    0.00000000E+00    0.00000000E+00    0.27296645E-08    0.65930936E-07    0.65930936E-07 
    20.5000        0.500000         1.50000             1    21     1     2       0       0       0    0.40053859E+02    0.19000000E+02    0.47760157E+00    0.00000000E+00    0.00000000E+00    0.27296643E-08    0.65930929E-07    0.65930929E-07 
    21.5000        0.500000         1.50000             1    22     1     2       0       0       0    0.40053878E+02    0.19000000E+02    0.47760175E+00    0.00000000E+00    0.00000000E+00    0.35206848E-08    0.80713700E-07    0.80713700E-07 
    22.5000        0.500000         1.50000             1    23     1     2       0       0       0    0.40053913E+02    0.19000000E+02    0.47760210E+00    0.00000000E+00    0.00000000E+00    0.45170543E-08    0.10969239E-06    0.10969239E-06 
    23.5000        0.500000         1.50000             1    24     1     2       0       0       0    0.40053962E+02    0.19000000E+02    0.47760258E+00    0.00000000E+00    0.00000000E+00    0.53318748E-08    0.15132763E-06    0.15132763E-06 
    24.5000        0.500000         1.50000             1    25     1     2       0       0       0    0.40054020E+02    0.19000000E+02    0.47760315E+00    0.00000000E+00    0.00000000E+00    0.57802527E-08    0.20266318E-06    0.20266318E-06 
    25.5000        0.500000         1.50000             1    26     1     2       0       0       0    0.40054080E+02    0.19000000E+02    0.47760374E+00    0.00000000E+00    0.00000000E+00    0.57832946E-08    0.25913734E-06    0.25913734E-06 
    26.5000        0.500000         1.50000             1    27     1     2       0       0       0    0.40054138E+02    0.19000000E+02    0.47760430E+00    0.00000000E+00    0.00000000E+00    0.53400523E-08    0.31491817E-06    0.31491817E-06 
    27.5000        0.500000         1.50000             1    28     1     2       0       0       0    0.40054187E+02    0.19000000E+02    0.47760479E+00    0.00000000E+00    0.00000000E+00    0.45279552E-08    0.36372555E-06    0.36372555E-06 
    28.5000        0.500000         1.50000             1    29     1     2       0       0       0    0.40054223E+02    0.19000000E+02    0.47760514E+00    0.00000000E+00    0.00000000E+00    0.35316330E-08    0.39985118E-06    0.39985118E-06 
    29.5000        0.500000         1.50000             1    30     1     2       0       0       0    0.40054241E+02    0.19000000E+02    0.47760532E+00    0.00000000E+00    0.00000000E+00    0.27394226E-08    0.41903843E-06    0.41903843E-06 
    30.5000        0.500000         1.50000             1    31     1     2       0       0       0    0.40054241E+02    0.19000000E+02    0.47760532E+00    0.00000000E+00    0.00000000E+00    0.27394220E-08    0.41903846E-06    0.41903846E-06 
    31.5000        0.500000         1.50000             1    32     1     2       0       0       0    0.40054223E+02    0.19000000E+02    0.47760514E+00    0.00000000E+00    0.00000000E+00    0.35316319E-08    0.39985127E-06    0.39985127E-06 
    32.5000        0.500000         1.50000             1    33     1     2       0       0       0    0.40054187E+02    0.19000000E+02    0.47760479E+00    0.00000000E+00    0.00000000E+00    0.45279540E-08    0.36372567E-06    0.36372567E-06 
    33.5000        0.500000         1.50000             1    34     1     2       0       0       0    0.40054138E+02    0.19000000E+02    0.47760430E+00    0.00000000E+00    0.00000000E+00    0.53400512E-08    0.31491830E-06    0.31491830E-06 
    34.5000        0.500000         1.50000             1    35     1     2       0       0       0    0.40054080E+02    0.19000000E+02    0.47760374E+00    0.00000000E+00    0.00000000E+00    0.57832937E-08    0.25913746E-06    0.25913746E-06 
    35.5000        0.500000         1.50000             1    36     1     2       0       0       0    0.40054020E+02    0.19000000E+02    0.47760315E+00    0.00000000E+00    0.00000000E+00    0.57802521E-08    0.20266328E-06    0.20266328E-06 
    36.5000        0.500000         1.50000             1    37     1     2       0       0       0    0.40053962E+02    0.19000000E+02    0.47760258E+00    0.00000000E+00    0.00000000E+00    0.53318744E-08    0.15132770E-06    0.15132770E-06 
    37.5000        0.500000         1.50000             1    38     1     2       0       0       0    0.40053913E+02    0.19000000E+02    0.47760210E+00    0.00000000E+00    0.00000000E+00    0.45170541E-08    0.10969244E-06    0.10969244E-06 
    38.5000        0.500000         1.50000             1    39     1     2       0       0       0    0.40053878E+02    0.19000000E+02    0.47760175E+00    0.00000000E+00    0.00000000E+00    0.35206846E-08    0.80713726E-07    0.80713726E-07 
    39.5000        0.500000         1.50000             1    40     1     2       0       0       0    0.40053859E+02    0.19000000E+02    0.47760157E+00    0.00000000E+00    0.00000000E+00    0.31534150E-08    0.65930942E-07    0.65930942E-07 
   0.500000        0.500000         2.50000             1     1     1     3       0       0       0    0.40053269E+02    0.19000000E+02    0.46780166E+00    0.00000000E+00    0.00000000E+00    0.50518010E-08    0.20759594E-06    0.20759594E-06 
    1.50000        0.500000         2.50000             1     2     1     3       0       0       0    0.40053291E+02    0.19000000E+02    0.46780188E+00    0.00000000E+00    0.00000000E+00    0.51804219E-08    0.25541233E-06    0.25541233E-06 
    2.50000        0.500000         2.50000             1     3     1     3       0       0       0    0.40053333E+02    0.19000000E+02    0.46780229E+00    0.00000000E+00    0.00000000E+00    0.58864728E-08    0.34930907E-06    0.34930907E-06 
    3.50000        0.500000         2.50000             1     4     1     3       0       0       0    0.40053391E+02    0.19000000E+02    0.46780286E+00    0.00000000E+00    0.00000000E+00    0.65180981E-08    0.48454297E-06    0.48454297E-06 
    4.50000        0.500000         2.50000             1     5     1     3       0       0       0    0.40053460E+02    0.19000000E+02    0.46780354E+00    0.00000000E+00    0.00000000E+00    0.68818676E-08    0.65172608E-06    0.65172608E-06 
    5.50000        0.500000         2.50000             1     6     1     3       0       0       0    0.40053532E+02    0.19000000E+02    0.46780424E+00    0.00000000E+00    0.00000000E+00    0.68859530E-08    0.83609983E-06    0.83609983E-06 
    6.50000        0.500000         2.50000             1     7     1     3       0       0       0    0.40053600E+02    0.19000000E+02    0.46780491E+00    0.00000000E+00    0.00000000E+00    0.65294683E-08    0.10185844E-05    0.10185844E-05 
    7.50000        0.500000         2.50000             1     8     1     3       0       0       0    0.40053658E+02    0.19000000E+02    0.46780549E+00    0.00000000E+00    0.00000000E+00    0.59028908E-08    0.11784998E-05    0.11784998E-05 
    8.50000        0.500000         2.50000             1     9     1     3       0       0       0    0.40053701E+02    0.19000000E+02    0.46780590E+00    0.00000000E+00    0.00000000E+00    0.51993658E-08    0.12969833E-05    0.12969833E-05 
    9.50000        0.500000         2.50000             1    10     1     3       0       0       0    0.40053723E+02    0.19000000E+02    0.46780612E+00    0.00000000E+00    0.00000000E+00    0.47116597E-08    0.13599478E-05    0.13599478E-05 
    10.5000        0.500000         2.50000             1    11     1     3       0       0       0    0.40053723E+02    0.19000000E+02    0.46780612E+00    0.00000000E+00    0.00000000E+00    0.47116594E-08    0.13599479E-05    0.13599479E-05 
    11.5000        0.500000         2.50000             1    12     1     3       0       0       0    0.40053701E+02    0.19000000E+02    0.46780590E+00    0.00000000E+00    0.00000000E+00    0.51993650E-08    0.12969836E-05    0.12969836E-05 
    12.5000        0.500000         2.50000             1    13     1     3       0       0       0    0.40053658E+02    0.19000000E+02    0.46780549E+00    0.00000000E+00    0.00000000E+00    0.59028898E-08    0.11785002E-05    0.11785002E-05 
    13.5000        0.500000         2.50000             1    14     1     3       0       0       0    0.40053600E+02    0.19000000E+02    0.46780491E+00    0.00000000E+00    0.00000000E+00    0.65294673E-08    0.10185849E-05    0.10185849E-05 
    14.5000        0.500000         2.50000             1    15     1     3       0       0       0    0.40053532E+02    0.19000000E+02    0.46780424E+00    0.00000000E+00    0.00000000E+00    0.68859521E-08    0.83610021E-06    0.83610021E-06 
    15.5000        0.500000         2.50000             1    16     1     3       0       0       0    0.40053460E+02    0.19000000E+02    0.46780354E+00    0.00000000E+00    0.00000000E+00    0.68818669E-08    0.65172639E-06    0.65172639E-06 
    16.5000        0.500000         2.50000             1    17     1     3       0       0       0    0.40053391E+02    0.19000000E+02    0.46780286E+00    0.00000000E+00    0.00000000E+00    0.65180976E-08    0.48454318E-06    0.48454318E-06 
    17.5000        0.500000         2.50000             1    18     1     3       0       0       0    0.40053333E+02    0.19000000E+02    0.46780229E+00    0.00000000E+00    0.00000000E+00    0.58864724E-08    0.34930921E-06    0.34930921E-06 
    18.5000        0.500000         2.50000             1    19     1     3       0       0       0    0.40053291E+02    0.19000000E+02    0.46780188E+00    0.00000000E+00    0.00000000E+00    0.51804216E-08    0.25541241E-06    0.25541241E-06 
    19.5000        0.500000         2.50000             1    20     1     3       0       0       0    0.40053269E+02    0.19000000E+02    0.46780166E+00    0.00000000E+00    0.00000000E+00    0.46919234E-08    0.20759598E-06    0.20759598E-06 
    20.5000        0.500000         2.50000             1    21     1     3       0       0       0    0.40053269E+02    0.19000000E+02    0.46780166E+00    0.00000000E+00    0.00000000E+00    0.46919233E-08    0.20759596E-06    0.20759596E-06 
    21.5000        0.500000         2.50000             1    22     1     3       0       0       0    0.40053291E+02    0.19000000E+02    0.46780188E+00    0.00000000E+00    0.00000000E+00    0.51804214E-08    0.25541233E-06    0.25541233E-06 
    22.5000        0.500000         2.50000             1    23     1     3       0       0       0    0.40053333E+02    0.19000000E+02    0.46780229E+00    0.00000000E+00    0.00000000E+00    0.58864723E-08    0.34930907E-06    0.34930907E-06 
    23.5000        0.500000         2.50000             1    24     1     3       0       0       0    0.40053391E+02    0.19000000E+02    0.46780286E+00    0.00000000E+00    0.00000000E+00    0.65180976E-08    0.48454297E-06    0.48454297E-06 
    24.5000        0.500000         2.50000             1    25     1     3       0       0       0    0.40053460E+02    0.19000000E+02    0.46780354E+00    0.00000000E+00    0.00000000E+00    0.68818671E-08    0.65172608E-06    0.65172608E-06 
    25.5000        0.500000         2.50000             1    26     1     3       0       0       0    0.40053532E+02    0.19000000E+02    0.46780424E+00    0.00000000E+00    0.00000000E+00    0.68859525E-08    0.83609983E-06    0.83609983E-06 
    26.5000        0.500000         2.50000             1    27     1     3       0       0       0    0.40053600E+02    0.19000000E+02    0.46780491E+00    0.00000000E+00    0.00000000E+00    0.65294679E-08    0.10185844E-05    0.10185844E-05 
    27.5000        0.500000         2.50000             1    28     1     3       0       0       0    0.40053658E+02    0.19000000E+02    0.46780549E+00    0.00000000E+00    0.00000000E+00    0.59028904E-08    0.11784998E-05    0.11784998E-05 
    28.5000        0.500000         2.50000             1    29     1     3       0       0       0    0.40053701E+02    0.19000000E+02    0.46780590E+00    0.00000000E+00    0.00000000E+00    0.51993655E-08    0.12969833E-05    0.12969833E-05 
    29.5000        0.500000         2.50000             1    30     1     3       0       0       0    0.40053723E+02    0.19000000E+02    0.46780612E+00    0.00000000E+00    0.00000000E+00    0.47116594E-08    0.13599478E-05    0.13599478E-05 
    30.5000        0.500000         2.50000             1    31     1     3       0       0       0    0.40053723E+02    0.19000000E+02    0.46780612E+00    0.00000000E+00    0.00000000E+00    0.47116591E-08    0.13599479E-05    0.13599479E-05 
    31.5000        0.500000         2.50000             1    32     1     3       0       0       0    0.40053701E+02    0.19000000E+02    0.46780590E+00    0.00000000E+00    0.00000000E+00    0.51993647E-08    0.12969836E-05    0.12969836E-05 
    32.5000        0.500000         2.50000             1    33     1     3       0       0       0    0.40053658E+02    0.19000000E+02    0.46780549E+00    0.00000000E+00    0.00000000E+00    0.59028894E-08    0.11785002E-05    0.11785002E-05 
    33.5000        0.500000         2.50000             1    34     1     3       0       0       0    0.40053600E+02    0.19000000E+02    0.46780491E+00    0.00000000E+00    0.00000000E+00    0.65294669E-08    0.10185849E-05    0.10185849E-05 
    34.5000        0.500000         2.50000             1    35     1     3       0       0       0    0.40053532E+02    0.19000000E+02    0.46780424E+00    0.00000000E+00    0.00000000E+00    0.68859517E-08    0.83610021E-06    0.83610021E-06 
    35.5000        0.500000         2.50000             1    36     1     3       0       0       0    0.40053460E+02    0.19000000E+02    0.46780354E+00    0.00000000E+00    0.00000000E+00    0.68818664E-08    0.65172639E-06    0.65172639E-06 
    36.5000        0.500000         2.50000             1    37     1     3       0       0       0    0.40053391E+02    0.19000000E+02    0.46780286E+00    0.00000000E+00    0.00000000E+00    0.65180971E-08    0.48454318E-06    0.48454318E-06 
    37.5000        0.500000         2.50000             1    38     1     3       0       0       0    0.40053333E+02    0.19000000E+02    0.46780229E+00    0.00000000E+00    0.00000000E+00    0.58864719E-08    0.34930921E-06    0.34930921E-06 
    38.5000        0.500000         2.50000             1    39     1     3       0       0       0    0.40053291E+02    0.19000000E+02    0.46780188E+00    0.00000000E+00    0.00000000E+00    0.51804212E-08    0.25541241E-06    0.25541241E-06 
    39.5000        0.500000         2.50000             1    40     1     3       0       0       0    0.40053269E+02    0.19000000E+02    0.46780166E+00    0.00000000E+00    0.00000000E+00    0.50518004E-08    0.20759600E-06    0.20759600E-06 
   0.500000        0.500000         3.50000             1     1     1     4       0       0       0    0.40052662E+02    0.19000000E+02    0.45800159E+00    0.00000000E+00    0.00000000E+00    0.75087285E-08    0.64441240E-06    0.64441240E-06 