title = "salt_final"
variables = "i",  "j",  "k", "x",            "y",            "z", "uindex",   "obsz","obst","cindex",           "head",           "temp",           "pres",           "satn",           "epot",           "vx",           "vy",           "vz",          "por",           "kx",           "ky",           "kz",           "lx",           "ly",           "lz",         "rhof",         "visf",          "qxc",          "qyc",          "qzc",        "sigma",           "lc",          "src",          "jxc",          "jyc",          "jzc"
zone i=   40, j=    1, k=   40, f=point
     1     1     1   0.500000        0.500000        0.500000              1       0       0       0   0.40054435E+02    0.19000000E+02    0.48740134E+00    0.00000000E+00    0.000000E+00   -0.166137E-08    0.000000E+00    0.166137E-08    0.350000E+00   -0.110000E+02   -0.110000E+02   -0.110000E+02    0.167477E+01    0.167477E+01    0.167477E+01    0.998560E+03    0.100331E-02   -0.000000E+00    0.000000E+00   -0.000000E+00    0.100000E-09    0.000000E+00   -0.101701E-11   -0.000000E+00    0.000000E+00   -0.000000E+00
     2     1     1    1.50000        0.500000        0.500000              1       0       0       0   0.40054452E+02    0.19000000E+02    0.48740151E+00    0.00000000E+00    0.000000E+00   -0.241114E-08    0.000000E+00    0.149952E-08    0.350000E+00   -0.110000E+02   -0.110000E+02   -0.110000E+02    0.167477E+01    0.167477E+01    0.167477E+01    0.998560E+03    0.100331E-02   -0.000000E+00    0.000000E+00   -0.000000E+00    0.100000E-09    0.000000E+00   -0.124069E-11   -0.000000E+00    0.000000E+00   -0.000000E+00
     3     1     1    2.50000        0.500000        0.500000              1       0       0       0   0.40054484E+02    0.19000000E+02    0.48740182E+00    0.00000000E+00    0.000000E+00   -0.375658E-08    0.000000E+00    0.119136E-08    0.350000E+00   -0.110000E+02   -0.110000E+02   -0.110000E+02    0.167477E+01    0.167477E+01    0.167477E+01    0.998560E+03    0.100331E-02   -0.000000E+00    0.000000E+00   -0.000000E+00    0.100000E-09    0.000000E+00   -0.167855E-11   -0.000000E+00    0.000000E+00   -0.000000E+00
     4     1     1    3.50000        0.500000        0.500000              1       0       0       0   0.40054529E+02    0.19000000E+02    0.48740226E+00    0.00000000E+00    0.000000E+00   -0.473554E-08    0.000000E+00    0.766564E-09    0.350000E+00   -0.110000E+02   -0.110000E+02   -0.110000E+02    0.167477E+01    0.167477E+01    0.167477E+01    0.998560E+03    0.100331E-02   -0.000000E+00    0.000000E+00   -0.000000E+00    0.100000E-09    0.000000E+00   -0.230637E-11   -0.000000E+00    0.000000E+00   -0.000000E+00
     5     1     1    4.50000        0.500000        0.500000              1       0       0       0   0.40054581E+02    0.19000000E+02    0.48740277E+00    0.00000000E+00    0.000000E+00   -0.525195E-08    0.000000E+00    0.266244E-09    0.350000E+00   -0.110000E+02   -0.110000E+02   -0.110000E+02    0.167477E+01    0.167477E+01    0.167477E+01    0.998560E+03    0.100331E-02   -0.000000E+00    0.000000E+00   -0.000000E+00    0.100000E-09    0.000000E+00   -0.307867E-11   -0.000000E+00    0.000000E+00   -0.000000E+00
     6     1     1    5.50000        0.500000        0.500000              1       0       0       0   0.40054636E+02    0.19000000E+02    0.48740331E+00    0.00000000E+00    0.000000E+00   -0.525463E-08    0.000000E+00   -0.260907E-09    0.350000E+00   -0.110000E+02   -0.110000E+02   -0.110000E+02    0.167477E+01    0.167477E+01    0.167477E+01    0.998560E+03    0.100332E-02   -0.000000E+00    0.000000E+00   -0.000000E+00    0.100000E-09    0.000000E+00   -0.392632E-11   -0.000000E+00    0.000000E+00   -0.000000E+00
     7     1     1    6.50000        0.500000        0.500000              1       0       0       0   0.40054689E+02    0.19000000E+02    0.48740383E+00    0.00000000E+00    0.000000E+00   -0.474254E-08    0.000000E+00   -0.763269E-09    0.350000E+00   -0.110000E+02   -0.110000E+02   -0.110000E+02    0.167477E+01    0.167477E+01    0.167477E+01    0.998560E+03    0.100332E-02   -0.000000E+00    0.000000E+00   -0.000000E+00    0.100000E-09    0.000000E+00   -0.476184E-11   -0.000000E+00    0.000000E+00   -0.000000E+00
     8     1     1    7.50000        0.500000        0.500000              1       0       0       0   0.40054733E+02    0.19000000E+02    0.48740427E+00    0.00000000E+00    0.000000E+00   -0.376523E-08    0.000000E+00   -0.119137E-08    0.350000E+00   -0.110000E+02   -0.110000E+02   -0.110000E+02    0.167477E+01    0.167477E+01    0.167477E+01    0.998560E+03    0.100332E-02   -0.000000E+00    0.000000E+00   -0.000000E+00    0.100000E-09    0.000000E+00   -0.549168E-11   -0.000000E+00    0.000000E+00   -0.000000E+00
     9     1     1    8.50000        0.500000        0.500000              1       0       0       0   0.40054766E+02    0.19000000E+02    0.48740458E+00    0.00000000E+00    0.000000E+00   -0.241813E-08    0.000000E+00   -0.150283E-08    0.350000E+00   -0.110000E+02   -0.110000E+02   -0.110000E+02    0.167477E+01    0.167477E+01    0.167477E+01    0.998560E+03    0.100332E-02   -0.000000E+00    0.000000E+00   -0.000000E+00    0.100000E-09    0.000000E+00   -0.603124E-11   -0.000000E+00    0.000000E+00   -0.000000E+00
    10     1     1    9.50000        0.500000        0.500000              1       0       0       0   0.40054783E+02    0.19000000E+02    0.48740475E+00    0.00000000E+00    0.000000E+00   -0.833360E-09    0.000000E+00   -0.166672E-08    0.350000E+00   -0.110000E+02   -0.110000E+02   -0.110000E+02    0.167477E+01    0.167477E+01    0.167477E+01    0.998560E+03    0.100332E-02   -0.000000E+00    0.000000E+00   -0.000000E+00    0.100000E-09    0.000000E+00   -0.631760E-11   -0.000000E+00    0.000000E+00   -0.000000E+00
    11     1     1    10.5000        0.500000        0.500000              1       0       0       0   0.40054783E+02    0.19000000E+02    0.48740475E+00    0.00000000E+00    0.000000E+00    0.833359E-09    0.000000E+00   -0.166672E-08    0.350000E+00   -0.110000E+02   -0.110000E+02   -0.110000E+02    0.167477E+01    0.167477E+01    0.167477E+01    0.998560E+03    0.100332E-02   -0.000000E+00    0.000000E+00   -0.000000E+00    0.100000E-09    0.000000E+00   -0.631760E-11   -0.000000E+00    0.000000E+00   -0.000000E+00
    12     1     1    11.5000        0.500000        0.500000              1       0       0       0   0.40054766E+02    0.19000000E+02    0.48740458E+00    0.00000000E+00    0.000000E+00    0.241813E-08    0.000000E+00   -0.150283E-08    0.350000E+00   -0.110000E+02   -0.110000E+02   -0.110000E+02    0.167477E+01    0.167477E+01    0.167477E+01    0.998560E+03    0.100332E-02   -0.000000E+00    0.000000E+00   -0.000000E+00    0.100000E-09    0.000000E+00   -0.603124E-11   -0.000000E+00    0.000000E+00   -0.000000E+00
    13     1     1    12.5000        0.500000        0.500000              1       0       0       0   0.40054733E+02    0.19000000E+02    0.48740427E+00    0.00000000E+00    0.000000E+00    0.376523E-08    0.000000E+00   -0.119137E-08    0.350000E+00   -0.110000E+02   -0.110000E+02   -0.110000E+02    0.167477E+01    0.167477E+01    0.167477E+01    0.998560E+03    0.100332E-02   -0.000000E+00    0.000000E+00   -0.000000E+00    0.100000E-09    0.000000E+00   -0.549169E-11   -0.000000E+00    0.000000E+00   -0.000000E+00
    14     1     1    13.5000        0.500000        0.500000              1       0       0       0   0.40054689E+02    0.19000000E+02    0.48740383E+00    0.00000000E+00    0.000000E+00    0.474254E-08    0.000000E+00   -0.763270E-09    0.350000E+00   -0.110000E+02   -0.110000E+02   -0.110000E+02    0.167477E+01    0.167477E+01    0.167477E+01    0.998560E+03    0.100332E-02   -0.000000E+00    0.000000E+00   -0.000000E+00    0.100000E-09    0.000000E+00   -0.476184E-11   -0.000000E+00    0.000000E+00   -0.000000E+00
    15     1     1    14.5000        0.500000        0.500000              1       0       0       0   0.40054636E+02    0.19000000E+02    0.48740331E+00    0.00000000E+00    0.000000E+00    0.525463E-08    0.000000E+00   -0.260907E-09    0.350000E+00   -0.110000E+02   -0.110000E+02   -0.110000E+02    0.167477E+01    0.167477E+01    0.167477E+01    0.998560E+03    0.100332E-02   -0.000000E+00    0.000000E+00   -0.000000E+00    0.100000E-09    0.000000E+00   -0.392632E-11   -0.000000E+00    0.000000E+00   -0.000000E+00
    16     1     1    15.5000        0.500000        0.500000              1       0       0       0   0.40054581E+02    0.19000000E+02    0.48740277E+00    0.00000000E+00    0.000000E+00    0.525195E-08    0.000000E+00    0.266243E-09    0.350000E+00   -0.110000E+02   -0.110000E+02   -0.110000E+02    0.167477E+01    0.167477E+01    0.167477E+01    0.998560E+03    0.100331E-02   -0.000000E+00    0.000000E+00   -0.000000E+00    0.100000E-09    0.000000E+00   -0.307867E-11   -0.000000E+00    0.000000E+00   -0.000000E+00
    17     1     1    16.5000        0.500000        0.500000              1       0       0       0   0.40054529E+02    0.19000000E+02    0.48740226E+00    0.00000000E+00    0.000000E+00    0.473554E-08    0.000000E+00    0.766564E-09    0.350000E+00   -0.110000E+02   -0.110000E+02   -0.110000E+02    0.167477E+01    0.167477E+01    0.167477E+01    0.998560E+03    0.100331E-02   -0.000000E+00    0.000000E+00   -0.000000E+00    0.100000E-09    0.000000E+00   -0.230637E-11   -0.000000E+00    0.000000E+00   -0.000000E+00
    18     1     1    17.5000        0.500000        0.500000              1       0       0       0   0.40054484E+02    0.19000000E+02    0.48740182E+00    0.00000000E+00    0.000000E+00    0.375658E-08    0.000000E+00    0.119136E-08    0.350000E+00   -0.110000E+02   -0.110000E+02   -0.110000E+02    0.167477E+01    0.167477E+01    0.167477E+01    0.998560E+03    0.100331E-02   -0.000000E+00    0.000000E+00   -0.000000E+00    0.100000E-09    0.000000E+00   -0.167855E-11   -0.000000E+00    0.000000E+00   -0.000000E+00
    19     1     1    18.5000        0.500000        0.500000              1       0       0       0   0.40054452E+02    0.19000000E+02    0.48740151E+00    0.00000000E+00    0.000000E+00    0.241114E-08    0.000000E+00    0.149952E-08    0.350000E+00   -0.110000E+02   -0.110000E+02   -0.110000E+02    0.167477E+01    0.167477E+01    0.167477E+01    0.998560E+03    0.100331E-02   -0.000000E+00    0.000000E+00   -0.000000E+00    0.100000E-09    0.000000E+00   -0.124069E-11   -0.000000E+00    0.000000E+00   -0.000000E+00
    20     1     1    19.5000        0.500000        0.500000              1       0       0       0   0.40054435E+02    0.19000000E+02    0.48740134E+00    0.00000000E+00    0.000000E+00    0.830687E-09    0.000000E+00    0.166137E-08    0.350000E+00   -0.110000E+02   -0.110000E+02   -0.110000E+02    0.167477E+01    0.167477E+01    0.167477E+01    0.998560E+03    0.100331E-02   -0.000000E+00    0.000000E+00   -0.000000E+00    0.100000E-09    0.000000E+00   -0.101701E-11   -0.000000E+00    0.000000E+00   -0.000000E+00
    21     1     1    20.5000        0.500000        0.500000              1       0       0       0   0.40054435E+02    0.19000000E+02    0.48740134E+00    0.00000000E+00    0.000000E+00   -0.830687E-09    0.000000E+00    0.166137E-08    0.350000E+00   -0.110000E+02   -0.110000E+02   -0.110000E+02    0.167477E+01    0.167477E+01    0.167477E+01    0.998560E+03    0.100331E-02   -0.000000E+00    0.000000E+00   -0.000000E+00    0.100000E-09    0.000000E+00   -0.101701E-11   -0.000000E+00    0.000000E+00   -0.000000E+00
    22     1     1    21.5000        0.500000        0.500000              1       0       0       0   0.40054452E+02    0.19000000E+02    0.48740151E+00    0.00000000E+00    0.000000E+00   -0.241114E-08    0.000000E+00    0.149952E-08    0.350000E+00   -0.110000E+02   -0.110000E+02   -0.110000E+02    0.167477E+01    0.167477E+01    0.167477E+01    0.998560E+03    0.100331E-02   -0.000000E+00    0.000000E+00   -0.000000E+00    0.100000E-09    0.000000E+00   -0.124069E-11   -0.000000E+00    0.000000E+00   -0.000000E+00
    23     1     1    22.5000        0.500000        0.500000              1       0       0       0   0.40054484E+02    0.19000000E+02    0.48740182E+00    0.00000000E+00    0.000000E+00   -0.375658E-08    0.000000E+00    0.119136E-08    0.350000E+00   -0.110000E+02   -0.110000E+02   -0.110000E+02    0.167477E+01    0.167477E+01    0.167477E+01    0.998560E+03    0.100331E-02   -0.000000E+00    0.000000E+00   -0.000000E+00    0.100000E-09    0.000000E+00   -0.167855E-11   -0.000000E+00    0.000000E+00   -0.000000E+00
    24     1     1    23.5000        0.500000        0.500000              1       0       0       0   0.40054529E+02    0.19000000E+02    0.48740226E+00    0.00000000E+00    0.000000E+00   -0.473554E-08    0.000000E+00    0.766564E-09    0.350000E+00   -0.110000E+02   -0.110000E+02   -0.110000E+02    0.167477E+01    0.167477E+01    0.167477E+01    0.998560E+03    0.100331E-02   -0.000000E+00    0.000000E+00   -0.000000E+00    0.100000E-09    0.000000E+00   -0.230637E-11   -0.000000E+00    0.000000E+00   -0.000000E+00
    25     1     1    24.5000        0.500000        0.500000              1       0       0       0   0.40054581E+02    0.19000000E+02    0.48740277E+00    0.00000000E+00    0.000000E+00   -0.525195E-08    0.000000E+00    0.266244E-09    0.350000E+00   -0.110000E+02   -0.110000E+02   -0.110000E+02    0.167477E+01    0.167477E+01    0.167477E+01    0.998560E+03    0.100331E-02   -0.000000E+00    0.000000E+00   -0.000000E+00    0.100000E-09    0.000000E+00   -0.307867E-11   -0.000000E+00    0.000000E+00   -0.000000E+00
    26     1     1    25.5000        0.500000        0.500000              1       0       0       0   0.40054636E+02    0.19000000E+02    0.48740331E+00    0.00000000E+00    0.000000E+00   -0.525463E-08    0.000000E+00   -0.260907E-09    0.350000E+00   -0.110000E+02   -0.110000E+02   -0.110000E+02    0.167477E+01    0.167477E+01    0.167477E+01    0.998560E+03    0.100332E-02   -0.000000E+00    0.000000E+00   -0.000000E+00    0.100000E-09    0.000000E+00   -0.392632E-11   -0.000000E+00    0.000000E+00   -0.000000E+00
    27     1     1    26.5000        0.500000        0.500000              1       0       0       0   0.40054689E+02    0.19000000E+02    0.48740383E+00    0.00000000E+00    0.000000E+00   -0.474254E-08    0.000000E+00   -0.763269E-09    0.350000E+00   -0.110000E+02   -0.110000E+02   -0.110000E+02    0.167477E+01    0.167477E+01    0.167477E+01    0.998560E+03    0.100332E-02   -0.000000E+00    0.000000E+00   -0.000000E+00    0.100000E-09    0.000000E+00   -0.476184E-11   -0.000000E+00    0.000000E+00   -0.000000E+00
    28     1     1    27.5000        0.500000        0.500000              1       0       0       0   0.40054733E+02    0.19000000E+02    0.48740427E+00    0.00000000E+00    0.000000E+00   -0.376523E-08    0.000000E+00   -0.119137E-08    0.350000E+00   -0.110000E+02   -0.110000E+02   -0.110000E+02    0.167477E+01    0.167477E+01    0.167477E+01    0.998560E+03    0.100332E-02   -0.000000E+00    0.000000E+00   -0.000000E+00    0.100000E-09    0.000000E+00   -0.549168E-11   -0.000000E+00    0.000000E+00   -0.000000E+00
    29     1     1    28.5000        0.500000        0.500000              1       0       0       0   0.40054766E+02    0.19000000E+02    0.48740458E+00    0.00000000E+00    0.000000E+00   -0.241813E-08    0.000000E+00   -0.150283E-08    0.350000E+00   -0.110000E+02   -0.110000E+02   -0.110000E+02    0.167477E+01    0.167477E+01    0.167477E+01    0.998560E+03    0.100332E-02   -0.000000E+00    0.000000E+00   -0.000000E+00    0.100000E-09    0.000000E+00   -0.603124E-11   -0.000000E+00    0.000000E+00   -0.000000E+00
    30     1     1    29.5000        0.500000        0.500000              1       0       0       0   0.40054783E+02    0.19000000E+02    0.48740475E+00    0.00000000E+00    0.000000E+00   -0.833360E-09    0.000000E+00   -0.166672E-08    0.350000E+00   -0.110000E+02   -0.110000E+02   -0.110000E+02    0.167477E+01    0.167477E+01    0.167477E+01    0.998560E+03    0.100332E-02   -0.000000E+00    0.000000E+00   -0.000000E+00    0.100000E-09    0.000000E+00   -0.631760E-11   -0.000000E+00    0.000000E+00   -0.000000E+00
    31     1     1    30.5000        0.500000        0.500000              1       0       0       0   0.40054783E+02    0.19000000E+02    0.48740475E+00    0.00000000E+00    0.000000E+00    0.833359E-09    0.000000E+00   -0.166672E-08    0.350000E+00   -0.110000E+02   -0.110000E+02   -0.110000E+02    0.167477E+01    0.167477E+01    0.167477E+01    0.998560E+03    0.100332E-02   -0.000000E+00    0.000000E+00   -0.000000E+00    0.100000E-09    0.000000E+00   -0.631760E-11   -0.000000E+00    0.000000E+00   -0.000000E+00
    32     1     1    31.5000        0.500000        0.500000              1       0       0       0   0.40054766E+02    0.19000000E+02    0.48740458E+00    0.00000000E+00    0.000000E+00    0.241813E-08    0.000000E+00   -0.150283E-08    0.350000E+00   -0.110000E+02   -0.110000E+02   -0.110000E+02    0.167477E+01    0.167477E+01    0.167477E+01    0.998560E+03    0.100332E-02   -0.000000E+00    0.000000E+00   -0.000000E+00    0.100000E-09    0.000000E+00   -0.603124E-11   -0.000000E+00    0.000000E+00   -0.000000E+00
    33     1     1    32.5000        0.500000        0.500000              1       0       0       0   0.40054733E+02    0.19000000E+02    0.48740427E+00    0.00000000E+00    0.000000E+00    0.376523E-08    0.000000E+00   -0.119137E-08    0.350000E+00   -0.110000E+02   -0.110000E+02   -0.110000E+02    0.167477E+01    0.167477E+01    0.167477E+01    0.998560E+03    0.100332E-02   -0.000000E+00    0.000000E+00   -0.000000E+00    0.100000E-09    0.000000E+00   -0.549169E-11   -0.000000E+00    0.000000E+00   -0.000000E+00
    34     1     1    33.5000        0.500000        0.500000              1       0       0       0   0.40054689E+02    0.19000000E+02    0.48740383E+00    0.00000000E+00    0.000000E+00    0.474254E-08    0.000000E+00   -0.763270E-09    0.350000E+00   -0.110000E+02   -0.110000E+02   -0.110000E+02    0.167477E+01    0.167477E+01    0.167477E+01    0.998560E+03    0.100332E-02   -0.000000E+00    0.000000E+00   -0.000000E+00    0.100000E-09    0.000000E+00   -0.476184E-11   -0.000000E+00    0.000000E+00   -0.000000E+00
    35     1     1    34.5000        0.500000        0.500000              1       0       0       0   0.40054636E+02    0.19000000E+02    0.48740331E+00    0.00000000E+00    0.000000E+00    0.525462E-08    0.000000E+00   -0.260907E-09    0.350000E+00   -0.110000E+02   -0.110000E+02   -0.110000E+02    0.167477E+01    0.167477E+01    0.167477E+01    0.998560E+03    0.100332E-02   -0.000000E+00    0.000000E+00   -0.000000E+00    0.100000E-09    0.000000E+00   -0.392632E-11   -0.000000E+00    0.000000E+00   -0.000000E+00
    36     1     1    35.5000        0.500000        0.500000              1       0       0       0   0.40054581E+02    0.19000000E+02    0.48740277E+00    0.00000000E+00    0.000000E+00    0.525195E-08    0.000000E+00    0.266243E-09    0.350000E+00   -0.110000E+02   -0.110000E+02   -0.110000E+02    0.167477E+01    0.167477E+01    0.167477E+01    0.998560E+03    0.100331E-02   -0.000000E+00    0.000000E+00   -0.000000E+00    0.100000E-09    0.000000E+00   -0.307867E-11   -0.000000E+00    0.000000E+00   -0.000000E+00
    37     1     1    36.5000        0.500000        0.500000              1       0       0       0   0.40054529E+02    0.19000000E+02    0.48740226E+00    0.00000000E+00    0.000000E+00    0.473554E-08    0.000000E+00    0.766564E-09    0.350000E+00   -0.110000E+02   -0.110000E+02   -0.110000E+02    0.167477E+01    0.167477E+01    0.167477E+01    0.998560E+03    0.100331E-02   -0.000000E+00    0.000000E+00   -0.000000E+00    0.100000E-09    0.000000E+00   -0.230637E-11   -0.000000E+00    0.000000E+00   -0.000000E+00
    38     1     1    37.5000        0.500000        0.500000              1       0       0       0   0.40054484E+02    0.19000000E+02    0.48740182E+00    0.00000000E+00    0.000000E+00    0.375658E-08    0.000000E+00    0.119136E-08    0.350000E+00   -0.110000E+02   -0.110000E+02   -0.110000E+02    0.167477E+01    0.167477E+01    0.167477E+01    0.998560E+03    0.100331E-02   -0.000000E+00    0.000000E+00   -0.000000E+00    0.100000E-09    0.000000E+00   -0.167855E-11   -0.000000E+00    0.000000E+00   -0.000000E+00
    39     1     1    38.5000        0.500000        0.500000              1       0       0       0   0.40054452E+02    0.19000000E+02    0.48740151E+00    0.00000000E+00    0.000000E+00    0.241114E-08    0.000000E+00    0.149952E-08    0.350000E+00   -0.110000E+02   -0.110000E+02   -0.110000E+02    0.167477E+01    0.167477E+01    0.167477E+01    0.998560E+03    0.100331E-02   -0.000000E+00    0.000000E+00   -0.000000E+00    0.100000E-09    0.000000E+00   -0.124069E-11   -0.000000E+00    0.000000E+00   -0.000000E+00
    40     1     1    39.5000        0.500000        0.500000              1       0       0       0   0.40054435E+02    0.19000000E+02    0.48740134E+00    0.00000000E+00    0.000000E+00    0.166137E-08    0.000000E+00    0.166137E-08    0.350000E+00   -0.110000E+02   -0.110000E+02   -0.110000E+02    0.167477E+01    0.167477E+01    0.167477E+01    0.998560E+03    0.100331E-02   -0.000000E+00    0.000000E+00   -0.000000E+00    0.100000E-09    0.000000E+00   -0.101701E-11   -0.000000E+00    0.000000E+00   -0.000000E+00
     1     1     2   0.500000        0.500000         1.50000              1       0       0       0   0.40053859E+02    0.19000000E+02    0.47760157E+00    0.00000000E+00    0.000000E+00   -0.182317E-08    0.000000E+00    0.257295E-08    0.350000E+00   -0.110000E+02   -0.110000E+02   -0.110000E+02    0.167477E+01    0.167477E+01    0.167477E+01    0.998555E+03    0.100331E-02   -0.000000E+00    0.000000E+00   -0.000000E+00    0.100000E-09    0.000000E+00   -0.270105E-11   -0.000000E+00    0.000000E+00   -0.000000E+00
     2     1     2    1.50000        0.500000         1.50000              1       0       0       0   0.40053878E+02    0.19000000E+02    0.47760175E+00    0.00000000E+00    0.000000E+00   -0.264606E-08    0.000000E+00    0.232241E-08    0.350000E+00   -0.110000E+02   -0.110000E+02   -0.110000E+02    0.167477E+01    0.167477E+01    0.167477E+01    0.998555E+03    0.100331E-02   -0.000000E+00    0.000000E+00   -0.000000E+00    0.100000E-09    0.000000E+00   -0.331304E-11   -0.000000E+00    0.000000E+00   -0.000000E+00
     3     1     2    2.50000        0.500000         1.50000              1       0       0       0   0.40053913E+02    0.19000000E+02    0.47760210E+00    0.00000000E+00    0.000000E+00   -0.412293E-08    0.000000E+00    0.184533E-08    0.350000E+00   -0.110000E+02   -0.110000E+02   -0.110000E+02    0.167477E+01    0.167477E+01    0.167477E+01    0.998555E+03    0.100332E-02   -0.000000E+00    0.000000E+00   -0.000000E+00    0.100000E-09    0.000000E+00   -0.451328E-11   -0.000000E+00    0.000000E+00   -0.000000E+00
     4     1     2    3.50000        0.500000         1.50000              1       0       0       0   0.40053962E+02    0.19000000E+02    0.47760258E+00    0.00000000E+00    0.000000E+00   -0.519793E-08    0.000000E+00    0.118759E-08    0.350000E+00   -0.110000E+02   -0.110000E+02   -0.110000E+02    0.167477E+01    0.167477E+01    0.167477E+01    0.998555E+03    0.100332E-02   -0.000000E+00    0.000000E+00   -0.000000E+00    0.100000E-09    0.000000E+00   -0.623874E-11   -0.000000E+00    0.000000E+00   -0.000000E+00
     5     1     2    4.50000        0.500000         1.50000              1       0       0       0   0.40054020E+02    0.19000000E+02    0.47760315E+00    0.00000000E+00    0.000000E+00   -0.576550E-08    0.000000E+00    0.412773E-09    0.350000E+00   -0.110000E+02   -0.110000E+02   -0.110000E+02    0.167477E+01    0.167477E+01    0.167477E+01    0.998555E+03    0.100332E-02   -0.000000E+00    0.000000E+00   -0.000000E+00    0.100000E-09    0.000000E+00   -0.836735E-11   -0.000000E+00    0.000000E+00   -0.000000E+00
     6     1     2    5.50000        0.500000         1.50000              1       0       0       0   0.40054080E+02    0.19000000E+02    0.47760374E+00    0.00000000E+00    0.000000E+00   -0.576918E-08    0.000000E+00   -0.403753E-09    0.350000E+00   -0.110000E+02   -0.110000E+02   -0.110000E+02    0.167477E+01    0.167477E+01    0.167477E+01    0.998555E+03    0.100332E-02   -0.000000E+00    0.000000E+00   -0.000000E+00    0.100000E-09    0.000000E+00   -0.107099E-10   -0.000000E+00    0.000000E+00   -0.000000E+00
     7     1     2    6.50000        0.500000         1.50000              1       0       0       0   0.40054138E+02    0.19000000E+02    0.47760430E+00    0.00000000E+00    0.000000E+00   -0.520759E-08    0.000000E+00   -0.118202E-08    0.350000E+00   -0.110000E+02   -0.110000E+02   -0.110000E+02    0.167477E+01    0.167477E+01    0.167477E+01    0.998555E+03    0.100332E-02   -0.000000E+00    0.000000E+00   -0.000000E+00    0.100000E-09    0.000000E+00   -0.130241E-10   -0.000000E+00    0.000000E+00   -0.000000E+00
     8     1     2    7.50000        0.500000         1.50000              1       0       0       0   0.40054187E+02    0.19000000E+02    0.47760479E+00    0.00000000E+00    0.000000E+00   -0.413486E-08    0.000000E+00   -0.184535E-08    0.350000E+00   -0.110000E+02   -0.110000E+02   -0.110000E+02    0.167477E+01    0.167477E+01    0.167477E+01    0.998555E+03    0.100332E-02   -0.000000E+00    0.000000E+00   -0.000000E+00    0.100000E-09    0.000000E+00   -0.150488E-10   -0.000000E+00    0.000000E+00   -0.000000E+00
     9     1     2    8.50000        0.500000         1.50000              1       0       0       0   0.40054223E+02    0.19000000E+02    0.47760514E+00    0.00000000E+00    0.000000E+00   -0.265572E-08    0.000000E+00   -0.232801E-08    0.350000E+00   -0.110000E+02   -0.110000E+02   -0.110000E+02    0.167477E+01    0.167477E+01    0.167477E+01    0.998555E+03    0.100332E-02   -0.000000E+00    0.000000E+00   -0.000000E+00    0.100000E-09    0.000000E+00   -0.165473E-10   -0.000000E+00    0.000000E+00   -0.000000E+00
    10     1     2    9.50000        0.500000         1.50000              1       0       0       0   0.40054241E+02    0.19000000E+02    0.47760532E+00    0.00000000E+00    0.000000E+00   -0.915273E-09    0.000000E+00   -0.258200E-08    0.350000E+00   -0.110000E+02   -0.110000E+02   -0.110000E+02    0.167477E+01    0.167477E+01    0.167477E+01    0.998555E+03    0.100332E-02   -0.000000E+00    0.000000E+00   -0.000000E+00    0.100000E-09    0.000000E+00   -0.173431E-10   -0.000000E+00    0.000000E+00   -0.000000E+00
    11     1     2    10.5000        0.500000         1.50000              1       0       0       0   0.40054241E+02    0.19000000E+02    0.47760532E+00    0.00000000E+00    0.000000E+00    0.915271E-09    0.000000E+00   -0.258200E-08    0.350000E+00   -0.110000E+02   -0.110000E+02   -0.110000E+02    0.167477E+01    0.167477E+01    0.167477E+01    0.998555E+03    0.100332E-02   -0.000000E+00    0.000000E+00   -0.000000E+00    0.100000E-09    0.000000E+00   -0.173431E-10   -0.000000E+00    0.000000E+00   -0.000000E+00
    12     1     2    11.5000        0.500000         1.50000              1       0       0       0   0.40054223E+02    0.19000000E+02    0.47760514E+00    0.00000000E+00    0.000000E+00    0.265571E-08    0.000000E+00   -0.232801E-08    0.350000E+00   -0.110000E+02   -0.110000E+02   -0.110000E+02    0.167477E+01    0.167477E+01    0.167477E+01    0.998555E+03    0.100332E-02   -0.000000E+00    0.000000E+00   -0.000000E+00    0.100000E-09    0.000000E+00   -0.165473E-10   -0.000000E+00    0.000000E+00   -0.000000E+00
    13     1     2    12.5000        0.500000         1.50000              1       0       0       0   0.40054187E+02    0.19000000E+02    0.47760479E+00    0.00000000E+00    0.000000E+00    0.413486E-08    0.000000E+00   -0.184535E-08    0.350000E+00   -0.110000E+02   -0.110000E+02   -0.110000E+02    0.167477E+01    0.167477E+01    0.167477E+01    0.998555E+03    0.100332E-02   -0.000000E+00    0.000000E+00   -0.000000E+00    0.100000E-09    0.000000E+00   -0.150488E-10   -0.000000E+00    0.000000E+00   -0.000000E+00
    14     1     2    13.5000        0.500000         1.50000              1       0       0       0   0.40054138E+02    0.19000000E+02    0.47760430E+00    0.00000000E+00    0.000000E+00    0.520759E-08    0.000000E+00   -0.118202E-08    0.350000E+00   -0.110000E+02   -0.110000E+02   -0.110000E+02    0.167477E+01    0.167477E+01    0.167477E+01    0.998555E+03    0.100332E-02   -0.000000E+00    0.000000E+00   -0.000000E+00    0.100000E-09    0.000000E+00   -0.130241E-10   -0.000000E+00    0.000000E+00   -0.000000E+00
    15     1     2    14.5000        0.500000         1.50000              1       0       0       0   0.40054080E+02    0.19000000E+02    0.47760374E+00    0.00000000E+00    0.000000E+00    0.576918E-08    0.000000E+00   -0.403753E-09    0.350000E+00   -0.110000E+02   -0.110000E+02   -0.110000E+02    0.167477E+01    0.167477E+01    0.167477E+01    0.998555E+03    0.100332E-02   -0.000000E+00    0.000000E+00   -0.000000E+00    0.100000E-09    0.000000E+00   -0.107099E-10   -0.000000E+00    0.000000E+00   -0.000000E+00
    16     1     2    15.5000        0.500000         1.50000              1       0       0       0   0.40054020E+02    0.19000000E+02    0.47760315E+00    0.00000000E+00    0.000000E+00    0.576550E-08    0.000000E+00    0.412772E-09    0.350000E+00   -0.110000E+02   -0.110000E+02   -0.110000E+02    0.167477E+01    0.167477E+01    0.167477E+01    0.998555E+03    0.100332E-02   -0.000000E+00    0.000000E+00   -0.000000E+00    0.100000E-09    0.000000E+00   -0.836736E-11   -0.000000E+00    0.000000E+00   -0.000000E+00