 TITLE = "Eigenvalues of C"
 VARIABLES = "obs" "eigenvalues"
 ZONE  F=POINT, I=    2 J=1 K=1
  1  0.45000E-03
  2  0.45000E-03
 ZONE  F=POINT, I=    2 J=1 K=1
  1  0.45000E-03
  2  0.45000E-03
