title = "samples_output/WAVEREAL_TRUE_E0_init_1"
variables = "x",            "y",            "z","uindex",  "i",  "j",  "k", "obsz","obst","cindex",            "head",           "temp",           "pres",           "satn",           "epot",           "v_abs",           "tsal",      "conc0001"
zone i=   31, j=   31, k=    1, f=point
    1.00000         1.00000         1.00000             3     1     1     1       0       0       0    0.11000000E+02    0.10000000E+02    0.19807057E+00    0.00000000E+00    0.00000000E+00    0.00000000E+00    0.00000000E+00    0.80000000E-01 
    3.00000         1.00000         1.00000             4     2     1     1       0       0       0    0.11000000E+02    0.10000000E+02    0.19807057E+00    0.00000000E+00    0.00000000E+00    0.00000000E+00    0.00000000E+00    0.80000000E-01 
    5.00000         1.00000         1.00000             5     3     1     1       0       0       0    0.11000000E+02    0.10000000E+02    0.19807057E+00    0.00000000E+00    0.00000000E+00    0.00000000E+00    0.00000000E+00    0.80000000E-01 
    7.00000         1.00000         1.00000             6     4     1     1       0       0       0    0.11000000E+02    0.10000000E+02    0.19807057E+00    0.00000000E+00    0.00000000E+00    0.00000000E+00    0.00000000E+00    0.80000000E-01 
    9.00000         1.00000         1.00000             7     5     1     1       0       0       0    0.11000000E+02    0.10000000E+02    0.19807057E+00    0.00000000E+00    0.00000000E+00    0.00000000E+00    0.00000000E+00    0.80000000E-01 
    11.0000         1.00000         1.00000             8     6     1     1       0       0       0    0.11000000E+02    0.10000000E+02    0.19807057E+00    0.00000000E+00    0.00000000E+00    0.00000000E+00    0.00000000E+00    0.80000000E-01 
    13.0000         1.00000         1.00000             9     7     1     1       0       0       0    0.11000000E+02    0.10000000E+02    0.19807057E+00    0.00000000E+00    0.00000000E+00    0.00000000E+00    0.00000000E+00    0.80000000E-01 
    15.0000         1.00000         1.00000            10     8     1     1       0       0       0    0.11000000E+02    0.10000000E+02    0.19807057E+00    0.00000000E+00    0.00000000E+00    0.00000000E+00    0.00000000E+00    0.80000000E-01 
    17.0000         1.00000         1.00000            11     9     1     1       0       0       0    0.11000000E+02    0.10000000E+02    0.19807057E+00    0.00000000E+00    0.00000000E+00    0.00000000E+00    0.00000000E+00    0.80000000E-01 
    19.0000         1.00000         1.00000            12    10     1     1       0       0       0    0.11000000E+02    0.10000000E+02    0.19807057E+00    0.00000000E+00    0.00000000E+00    0.00000000E+00    0.00000000E+00    0.80000000E-01 
    21.0000         1.00000         1.00000            13    11     1     1       0       0       0    0.11000000E+02    0.10000000E+02    0.19807057E+00    0.00000000E+00    0.00000000E+00    0.00000000E+00    0.00000000E+00    0.80000000E-01 
    23.0000         1.00000         1.00000            14    12     1     1       0       0       0    0.11000000E+02    0.10000000E+02    0.19807057E+00    0.00000000E+00    0.00000000E+00    0.00000000E+00    0.00000000E+00    0.80000000E-01 
    25.0000         1.00000         1.00000            15    13     1     1       0       0       0    0.11000000E+02    0.10000000E+02    0.19807057E+00    0.00000000E+00    0.00000000E+00    0.00000000E+00    0.00000000E+00    0.80000000E-01 
    27.0000         1.00000         1.00000            16    14     1     1       0       0       0    0.11000000E+02    0.10000000E+02    0.19807057E+00    0.00000000E+00    0.00000000E+00    0.00000000E+00    0.00000000E+00    0.80000000E-01 
    29.0000         1.00000         1.00000            17    15     1     1       0       0       0    0.11000000E+02    0.10000000E+02    0.19807057E+00    0.00000000E+00    0.00000000E+00    0.00000000E+00    0.00000000E+00    0.80000000E-01 
    31.0000         1.00000         1.00000            18    16     1     1       0       0       0    0.11000000E+02    0.10000000E+02    0.19807057E+00    0.00000000E+00    0.00000000E+00    0.00000000E+00    0.00000000E+00    0.80000000E-01 
    33.0000         1.00000         1.00000            19    17     1     1       0       0       0    0.11000000E+02    0.10000000E+02    0.19807057E+00    0.00000000E+00    0.00000000E+00    0.00000000E+00    0.00000000E+00    0.80000000E-01 
    35.0000         1.00000         1.00000            20    18     1     1       0       0       0    0.11000000E+02    0.10000000E+02    0.19807057E+00    0.00000000E+00    0.00000000E+00    0.00000000E+00    0.00000000E+00    0.80000000E-01 
    37.0000         1.00000         1.00000            21    19     1     1       0       0       0    0.11000000E+02    0.10000000E+02    0.19807057E+00    0.00000000E+00    0.00000000E+00    0.00000000E+00    0.00000000E+00    0.80000000E-01 
    39.0000         1.00000         1.00000            22    20     1     1       0       0       0    0.11000000E+02    0.10000000E+02    0.19807057E+00    0.00000000E+00    0.00000000E+00    0.00000000E+00    0.00000000E+00    0.80000000E-01 
    41.0000         1.00000         1.00000            23    21     1     1       0       0       0    0.11000000E+02    0.10000000E+02    0.19807057E+00    0.00000000E+00    0.00000000E+00    0.00000000E+00    0.00000000E+00    0.80000000E-01 
    43.0000         1.00000         1.00000            24    22     1     1       0       0       0    0.11000000E+02    0.10000000E+02    0.19807057E+00    0.00000000E+00    0.00000000E+00    0.00000000E+00    0.00000000E+00    0.80000000E-01 
    45.0000         1.00000         1.00000            25    23     1     1       0       0       0    0.11000000E+02    0.10000000E+02    0.19807057E+00    0.00000000E+00    0.00000000E+00    0.00000000E+00    0.00000000E+00    0.80000000E-01 
    47.0000         1.00000         1.00000            26    24     1     1       0       0       0    0.11000000E+02    0.10000000E+02    0.19807057E+00    0.00000000E+00    0.00000000E+00    0.00000000E+00    0.00000000E+00    0.80000000E-01 
    49.0000         1.00000         1.00000            27    25     1     1       0       0       0    0.11000000E+02    0.10000000E+02    0.19807057E+00    0.00000000E+00    0.00000000E+00    0.00000000E+00    0.00000000E+00    0.80000000E-01 
    51.0000         1.00000         1.00000            28    26     1     1       0       0       0    0.11000000E+02    0.10000000E+02    0.19807057E+00    0.00000000E+00    0.00000000E+00    0.00000000E+00    0.00000000E+00    0.80000000E-01 
    53.0000         1.00000         1.00000            29    27     1     1       0       0       0    0.11000000E+02    0.10000000E+02    0.19807057E+00    0.00000000E+00    0.00000000E+00    0.00000000E+00    0.00000000E+00    0.80000000E-01 
    55.0000         1.00000         1.00000            30    28     1     1       0       0       0    0.11000000E+02    0.10000000E+02    0.19807057E+00    0.00000000E+00    0.00000000E+00    0.00000000E+00    0.00000000E+00    0.80000000E-01 
    57.0000         1.00000         1.00000            31    29     1     1       0       0       0    0.11000000E+02    0.10000000E+02    0.19807057E+00    0.00000000E+00    0.00000000E+00    0.00000000E+00    0.00000000E+00    0.80000000E-01 
    59.0000         1.00000         1.00000            32    30     1     1       0       0       0    0.11000000E+02    0.10000000E+02    0.19807057E+00    0.00000000E+00    0.00000000E+00    0.00000000E+00    0.00000000E+00    0.80000000E-01 
    61.0000         1.00000         1.00000            33    31     1     1       0       0       0    0.11000000E+02    0.10000000E+02    0.19807057E+00    0.00000000E+00    0.00000000E+00    0.00000000E+00    0.00000000E+00    0.80000000E-01 
    1.00000         3.00000         1.00000            34     1     2     1       0       0       0    0.11000000E+02    0.10000000E+02    0.19807057E+00    0.00000000E+00    0.00000000E+00    0.00000000E+00    0.00000000E+00    0.60000000E-01 
    3.00000         3.00000         1.00000            35     2     2     1       0       0       0    0.11000000E+02    0.10000000E+02    0.19807057E+00    0.00000000E+00    0.00000000E+00    0.00000000E+00    0.00000000E+00    0.60000000E-01 
    5.00000         3.00000         1.00000            36     3     2     1       0       0       0    0.11000000E+02    0.10000000E+02    0.19807057E+00    0.00000000E+00    0.00000000E+00    0.00000000E+00    0.00000000E+00    0.60000000E-01 
    7.00000         3.00000         1.00000            37     4     2     1       0       0       0    0.11000000E+02    0.10000000E+02    0.19807057E+00    0.00000000E+00    0.00000000E+00    0.00000000E+00    0.00000000E+00    0.60000000E-01 
    9.00000         3.00000         1.00000            38     5     2     1       0       0       0    0.11000000E+02    0.10000000E+02    0.19807057E+00    0.00000000E+00    0.00000000E+00    0.00000000E+00    0.00000000E+00    0.60000000E-01 
    11.0000         3.00000         1.00000            39     6     2     1       0       0       0    0.11000000E+02    0.10000000E+02    0.19807057E+00    0.00000000E+00    0.00000000E+00    0.00000000E+00    0.00000000E+00    0.60000000E-01 
    13.0000         3.00000         1.00000            40     7     2     1       0       0       0    0.11000000E+02    0.10000000E+02    0.19807057E+00    0.00000000E+00    0.00000000E+00    0.00000000E+00    0.00000000E+00    0.60000000E-01 
    15.0000         3.00000         1.00000            41     8     2     1       0       0       0    0.11000000E+02    0.10000000E+02    0.19807057E+00    0.00000000E+00    0.00000000E+00    0.00000000E+00    0.00000000E+00    0.60000000E-01 
    17.0000         3.00000         1.00000            42     9     2     1       0       0       0    0.11000000E+02    0.10000000E+02    0.19807057E+00    0.00000000E+00    0.00000000E+00    0.00000000E+00    0.00000000E+00    0.60000000E-01 
    19.0000         3.00000         1.00000            43    10     2     1       0       0       0    0.11000000E+02    0.10000000E+02    0.19807057E+00    0.00000000E+00    0.00000000E+00    0.00000000E+00    0.00000000E+00    0.60000000E-01 
    21.0000         3.00000         1.00000            44    11     2     1       0       0       0    0.11000000E+02    0.10000000E+02    0.19807057E+00    0.00000000E+00    0.00000000E+00    0.00000000E+00    0.00000000E+00    0.60000000E-01 
    23.0000         3.00000         1.00000            45    12     2     1       0       0       0    0.11000000E+02    0.10000000E+02    0.19807057E+00    0.00000000E+00    0.00000000E+00    0.00000000E+00    0.00000000E+00    0.60000000E-01 
    25.0000         3.00000         1.00000            46    13     2     1       0       0       0    0.11000000E+02    0.10000000E+02    0.19807057E+00    0.00000000E+00    0.00000000E+00    0.00000000E+00    0.00000000E+00    0.60000000E-01 
    27.0000         3.00000         1.00000            47    14     2     1       0       0       0    0.11000000E+02    0.10000000E+02    0.19807057E+00    0.00000000E+00    0.00000000E+00    0.00000000E+00    0.00000000E+00    0.60000000E-01 
    29.0000         3.00000         1.00000            48    15     2     1       0       0       0    0.11000000E+02    0.10000000E+02    0.19807057E+00    0.00000000E+00    0.00000000E+00    0.00000000E+00    0.00000000E+00    0.60000000E-01 
    31.0000         3.00000         1.00000            49    16     2     1       0       0       0    0.11000000E+02    0.10000000E+02    0.19807057E+00    0.00000000E+00    0.00000000E+00    0.00000000E+00    0.00000000E+00    0.60000000E-01 
    33.0000         3.00000         1.00000            50    17     2     1       0       0       0    0.11000000E+02    0.10000000E+02    0.19807057E+00    0.00000000E+00    0.00000000E+00    0.00000000E+00    0.00000000E+00    0.60000000E-01 
    35.0000         3.00000         1.00000            51    18     2     1       0       0       0    0.11000000E+02    0.10000000E+02    0.19807057E+00    0.00000000E+00    0.00000000E+00    0.00000000E+00    0.00000000E+00    0.60000000E-01 
    37.0000         3.00000         1.00000            52    19     2     1       0       0       0    0.11000000E+02    0.10000000E+02    0.19807057E+00    0.00000000E+00    0.00000000E+00    0.00000000E+00    0.00000000E+00    0.60000000E-01 
    39.0000         3.00000         1.00000            53    20     2     1       0       0       0    0.11000000E+02    0.10000000E+02    0.19807057E+00    0.00000000E+00    0.00000000E+00    0.00000000E+00    0.00000000E+00    0.60000000E-01 
    41.0000         3.00000         1.00000            54    21     2     1       0       0       0    0.11000000E+02    0.10000000E+02    0.19807057E+00    0.00000000E+00    0.00000000E+00    0.00000000E+00    0.00000000E+00    0.60000000E-01 
    43.0000         3.00000         1.00000            55    22     2     1       0       0       0    0.11000000E+02    0.10000000E+02    0.19807057E+00    0.00000000E+00    0.00000000E+00    0.00000000E+00    0.00000000E+00    0.60000000E-01 
    45.0000         3.00000         1.00000            56    23     2     1       0       0       0    0.11000000E+02    0.10000000E+02    0.19807057E+00    0.00000000E+00    0.00000000E+00    0.00000000E+00    0.00000000E+00    0.60000000E-01 
    47.0000         3.00000         1.00000            57    24     2     1       0       0       0    0.11000000E+02    0.10000000E+02    0.19807057E+00    0.00000000E+00    0.00000000E+00    0.00000000E+00    0.00000000E+00    0.60000000E-01 
    49.0000         3.00000         1.00000            58    25     2     1       0       0       0    0.11000000E+02    0.10000000E+02    0.19807057E+00    0.00000000E+00    0.00000000E+00    0.00000000E+00    0.00000000E+00    0.60000000E-01 
    51.0000         3.00000         1.00000            59    26     2     1       0       0       0    0.11000000E+02    0.10000000E+02    0.19807057E+00    0.00000000E+00    0.00000000E+00    0.00000000E+00    0.00000000E+00    0.60000000E-01 
    53.0000         3.00000         1.00000            60    27     2     1       0       0       0    0.11000000E+02    0.10000000E+02    0.19807057E+00    0.00000000E+00    0.00000000E+00    0.00000000E+00    0.00000000E+00    0.60000000E-01 
    55.0000         3.00000         1.00000            61    28     2     1       0       0       0    0.11000000E+02    0.10000000E+02    0.19807057E+00    0.00000000E+00    0.00000000E+00    0.00000000E+00    0.00000000E+00    0.60000000E-01 
    57.0000         3.00000         1.00000            62    29     2     1       0       0       0    0.11000000E+02    0.10000000E+02    0.19807057E+00    0.00000000E+00    0.00000000E+00    0.00000000E+00    0.00000000E+00    0.60000000E-01 
    59.0000         3.00000         1.00000            63    30     2     1       0       0       0    0.11000000E+02    0.10000000E+02    0.19807057E+00    0.00000000E+00    0.00000000E+00    0.00000000E+00    0.00000000E+00    0.60000000E-01 
    61.0000         3.00000         1.00000            64    31     2     1       0       0       0    0.11000000E+02    0.10000000E+02    0.19807057E+00    0.00000000E+00    0.00000000E+00    0.00000000E+00    0.00000000E+00    0.60000000E-01 
    1.00000         5.00000         1.00000            65     1     3     1       0       0       0    0.11000000E+02    0.10000000E+02    0.19807057E+00    0.00000000E+00    0.00000000E+00    0.25845699E-06    0.00000000E+00    0.60000000E-01 
    3.00000         5.00000         1.00000            66     2     3     1       0       0       0    0.11000000E+02    0.10000000E+02    0.19807057E+00    0.00000000E+00    0.00000000E+00    0.22102175E-06    0.00000000E+00    0.60000000E-01 
    5.00000         5.00000         1.00000            67     3     3     1       0       0       0    0.11000000E+02    0.10000000E+02    0.19807057E+00    0.00000000E+00    0.00000000E+00    0.17125792E-06    0.00000000E+00    0.60000000E-01 
    7.00000         5.00000         1.00000            68     4     3     1       0       0       0    0.11000000E+02    0.10000000E+02    0.19807057E+00    0.00000000E+00    0.00000000E+00    0.11692057E-06    0.00000000E+00    0.60000000E-01 
    9.00000         5.00000         1.00000            69     5     3     1       0       0       0    0.11000000E+02    0.10000000E+02    0.19807057E+00    0.00000000E+00    0.00000000E+00    0.10254404E-06    0.00000000E+00    0.60000000E-01 
    11.0000         5.00000         1.00000            70     6     3     1       0       0       0    0.11000000E+02    0.10000000E+02    0.19807057E+00    0.00000000E+00    0.00000000E+00    0.96721402E-07    0.00000000E+00    0.60000000E-01 
    13.0000         5.00000         1.00000            71     7     3     1       0       0       0    0.11000000E+02    0.10000000E+02    0.19807057E+00    0.00000000E+00    0.00000000E+00    0.81738895E-07    0.00000000E+00    0.60000000E-01 
    15.0000         5.00000         1.00000            72     8     3     1       0       0       0    0.11000000E+02    0.10000000E+02    0.19807057E+00    0.00000000E+00    0.00000000E+00    0.41440807E-07    0.00000000E+00    0.60000000E-01 
    17.0000         5.00000         1.00000            73     9     3     1       0       0       0    0.11000000E+02    0.10000000E+02    0.19807057E+00    0.00000000E+00    0.00000000E+00    0.23505410E-07    0.00000000E+00    0.60000000E-01 
    19.0000         5.00000         1.00000            74    10     3     1       0       0       0    0.11000000E+02    0.10000000E+02    0.19807057E+00    0.00000000E+00    0.00000000E+00    0.16307214E-07    0.00000000E+00    0.60000000E-01 
    21.0000         5.00000         1.00000            75    11     3     1       0       0       0    0.11000000E+02    0.10000000E+02    0.19807057E+00    0.00000000E+00    0.00000000E+00    0.24890810E-07    0.00000000E+00    0.60000000E-01 
    23.0000         5.00000         1.00000            76    12     3     1       0       0       0    0.11000000E+02    0.10000000E+02    0.19807057E+00    0.00000000E+00    0.00000000E+00    0.36964400E-07    0.00000000E+00    0.60000000E-01 
    25.0000         5.00000         1.00000            77    13     3     1       0       0       0    0.11000000E+02    0.10000000E+02    0.19807057E+00    0.00000000E+00    0.00000000E+00    0.41848427E-07    0.00000000E+00    0.60000000E-01 
    27.0000         5.00000         1.00000            78    14     3     1       0       0       0    0.11000000E+02    0.10000000E+02    0.19807057E+00    0.00000000E+00    0.00000000E+00    0.69204660E-07    0.00000000E+00    0.60000000E-01 
    29.0000         5.00000         1.00000            79    15     3     1       0       0       0    0.11000000E+02    0.10000000E+02    0.19807057E+00    0.00000000E+00    0.00000000E+00    0.82270283E-07    0.00000000E+00    0.60000000E-01 
    31.0000         5.00000         1.00000            80    16     3     1       0       0       0    0.11000000E+02    0.10000000E+02    0.19807057E+00    0.00000000E+00    0.00000000E+00    0.95887775E-07    0.00000000E+00    0.60000000E-01 
    33.0000         5.00000         1.00000            81    17     3     1       0       0       0    0.11000000E+02    0.10000000E+02    0.19807057E+00    0.00000000E+00    0.00000000E+00    0.69392651E-07    0.00000000E+00    0.60000000E-01 
    35.0000         5.00000         1.00000            82    18     3     1       0       0       0    0.11000000E+02    0.10000000E+02    0.19807057E+00    0.00000000E+00    0.00000000E+00    0.12918078E-06    0.00000000E+00    0.60000000E-01 
    37.0000         5.00000         1.00000            83    19     3     1       0       0       0    0.11000000E+02    0.10000000E+02    0.19807057E+00    0.00000000E+00    0.00000000E+00    0.14515132E-06    0.00000000E+00    0.60000000E-01 
    39.0000         5.00000         1.00000            84    20     3     1       0       0       0    0.11000000E+02    0.10000000E+02    0.19807057E+00    0.00000000E+00    0.00000000E+00    0.19340071E-06    0.00000000E+00    0.60000000E-01 
    41.0000         5.00000         1.00000            85    21     3     1       0       0       0    0.11000000E+02    0.10000000E+02    0.19807057E+00    0.00000000E+00    0.00000000E+00    0.22706389E-06    0.00000000E+00    0.60000000E-01 
    43.0000         5.00000         1.00000            86    22     3     1       0       0       0    0.11000000E+02    0.10000000E+02    0.19807057E+00    0.00000000E+00    0.00000000E+00    0.44033717E-06    0.00000000E+00    0.60000000E-01 
    45.0000         5.00000         1.00000            87    23     3     1       0       0       0    0.11000000E+02    0.10000000E+02    0.19807057E+00    0.00000000E+00    0.00000000E+00    0.51911332E-06    0.00000000E+00    0.60000000E-01 
    47.0000         5.00000         1.00000            88    24     3     1       0       0       0    0.11000000E+02    0.10000000E+02    0.19807057E+00    0.00000000E+00    0.00000000E+00    0.47119762E-06    0.00000000E+00    0.60000000E-01 
    49.0000         5.00000         1.00000            89    25     3     1       0       0       0    0.11000000E+02    0.10000000E+02    0.19807057E+00    0.00000000E+00    0.00000000E+00    0.62462099E-06    0.00000000E+00    0.60000000E-01 
    51.0000         5.00000         1.00000            90    26     3     1       0       0       0    0.11000000E+02    0.10000000E+02    0.19807057E+00    0.00000000E+00    0.00000000E+00    0.78516796E-06    0.00000000E+00    0.60000000E-01 
    53.0000         5.00000         1.00000            91    27     3     1       0       0       0    0.11000000E+02    0.10000000E+02    0.19807057E+00    0.00000000E+00    0.00000000E+00    0.64982855E-06    0.00000000E+00    0.60000000E-01 
    55.0000         5.00000         1.00000            92    28     3     1       0       0       0    0.11000000E+02    0.10000000E+02    0.19807057E+00    0.00000000E+00    0.00000000E+00    0.60583302E-06    0.00000000E+00    0.60000000E-01 
    57.0000         5.00000         1.00000            93    29     3     1       0       0       0    0.11000000E+02    0.10000000E+02    0.19807057E+00    0.00000000E+00    0.00000000E+00    0.54978025E-06    0.00000000E+00    0.60000000E-01 
    59.0000         5.00000         1.00000            94    30     3     1       0       0       0    0.11000000E+02    0.10000000E+02    0.19807057E+00    0.00000000E+00    0.00000000E+00    0.58173461E-06    0.00000000E+00    0.60000000E-01 
    61.0000         5.00000         1.00000            95    31     3     1       0       0       0    0.11000000E+02    0.10000000E+02    0.19807057E+00    0.00000000E+00    0.00000000E+00    0.93550980E-06    0.00000000E+00    0.60000000E-01 
    1.00000         7.00000         1.00000            96     1     4     1       0       0       0    0.10900000E+02    0.10000000E+02    0.19708986E+00    0.00000000E+00    0.00000000E+00    0.25845699E-06    0.00000000E+00    0.60000000E-01 
    3.00000         7.00000         1.00000            97     2     4     1       0       0       0    0.10900000E+02    0.10000000E+02    0.19708986E+00    0.00000000E+00    0.00000000E+00    0.22102175E-06    0.00000000E+00    0.60000000E-01 
    5.00000         7.00000         1.00000            98     3     4     1       0       0       0    0.10900000E+02    0.10000000E+02    0.19708986E+00    0.00000000E+00    0.00000000E+00    0.17125792E-06    0.00000000E+00    0.60000000E-01 
    7.00000         7.00000         1.00000            99     4     4     1       0       0       0    0.10900000E+02    0.10000000E+02    0.19708986E+00    0.00000000E+00    0.00000000E+00    0.11692057E-06    0.00000000E+00    0.60000000E-01 
    9.00000         7.00000         1.00000           100     5     4     1       0       0       0    0.10900000E+02    0.10000000E+02    0.19708986E+00    0.00000000E+00    0.00000000E+00    0.10254404E-06    0.00000000E+00    0.60000000E-01 
    11.0000         7.00000         1.00000           101     6     4     1       0       0       0    0.10900000E+02    0.10000000E+02    0.19708986E+00    0.00000000E+00    0.00000000E+00    0.96721402E-07    0.00000000E+00    0.60000000E-01 
    13.0000         7.00000         1.00000           102     7     4     1       0       0       0    0.10900000E+02    0.10000000E+02    0.19708986E+00    0.00000000E+00    0.00000000E+00    0.81738895E-07    0.00000000E+00    0.60000000E-01 
    15.0000         7.00000         1.00000           103     8     4     1       0       0       0    0.10900000E+02    0.10000000E+02    0.19708986E+00    0.00000000E+00    0.00000000E+00    0.41440807E-07    0.00000000E+00    0.60000000E-01 
    17.0000         7.00000         1.00000           104     9     4     1       0       0       0    0.10900000E+02    0.10000000E+02    0.19708986E+00    0.00000000E+00    0.00000000E+00    0.23505410E-07    0.00000000E+00    0.60000000E-01 
    19.0000         7.00000         1.00000           105    10     4     1       0       0       0    0.10900000E+02    0.10000000E+02    0.19708986E+00    0.00000000E+00    0.00000000E+00    0.16307214E-07    0.00000000E+00    0.60000000E-01 
    21.0000         7.00000         1.00000           106    11     4     1       0       0       0    0.10900000E+02    0.10000000E+02    0.19708986E+00    0.00000000E+00    0.00000000E+00    0.24890810E-07    0.00000000E+00    0.60000000E-01 
    23.0000         7.00000         1.00000           107    12     4     1       0       0       0    0.10900000E+02    0.10000000E+02    0.19708986E+00    0.00000000E+00    0.00000000E+00    0.36964400E-07    0.00000000E+00    0.60000000E-01 
    25.0000         7.00000         1.00000           108    13     4     1       0       0       0    0.10900000E+02    0.10000000E+02    0.19708986E+00    0.00000000E+00    0.00000000E+00    0.41848427E-07    0.00000000E+00    0.60000000E-01 
    27.0000         7.00000         1.00000           109    14     4     1       0       0       0    0.10900000E+02    0.10000000E+02    0.19708986E+00    0.00000000E+00    0.00000000E+00    0.69204660E-07    0.00000000E+00    0.60000000E-01 
    29.0000         7.00000         1.00000           110    15     4     1       0       0       0    0.10900000E+02    0.10000000E+02    0.19708986E+00    0.00000000E+00    0.00000000E+00    0.82270283E-07    0.00000000E+00    0.60000000E-01 
    31.0000         7.00000         1.00000           111    16     4     1       0       0       0    0.10900000E+02    0.10000000E+02    0.19708986E+00    0.00000000E+00    0.00000000E+00    0.95887775E-07    0.00000000E+00    0.60000000E-01 
    33.0000         7.00000         1.00000           112    17     4     1       0       0       0    0.10900000E+02    0.10000000E+02    0.19708986E+00    0.00000000E+00    0.00000000E+00    0.69392651E-07    0.00000000E+00    0.60000000E-01 
    35.0000         7.00000         1.00000           113    18     4     1       0       0       0    0.10900000E+02    0.10000000E+02    0.19708986E+00    0.00000000E+00    0.00000000E+00    0.12918078E-06    0.00000000E+00    0.60000000E-01 
    37.0000         7.00000         1.00000           114    19     4     1       0       0       0    0.10900000E+02    0.10000000E+02    0.19708986E+00    0.00000000E+00    0.00000000E+00    0.14515132E-06    0.00000000E+00    0.60000000E-01 
    39.0000         7.00000         1.00000           115    20     4     1       0       0       0    0.10900000E+02    0.10000000E+02    0.19708986E+00    0.00000000E+00    0.00000000E+00    0.19340071E-06    0.00000000E+00    0.60000000E-01 
    41.0000         7.00000         1.00000           116    21     4     1       0       0       0    0.10900000E+02    0.10000000E+02    0.19708986E+00    0.00000000E+00    0.00000000E+00    0.22706389E-06    0.00000000E+00    0.60000000E-01 
    43.0000         7.00000         1.00000           117    22     4     1       0       0       0    0.10900000E+02    0.10000000E+02    0.19708986E+00    0.00000000E+00    0.00000000E+00    0.44033717E-06    0.00000000E+00    0.60000000E-01 
    45.0000         7.00000         1.00000           118    23     4     1       0       0       0    0.10900000E+02    0.10000000E+02    0.19708986E+00    0.00000000E+00    0.00000000E+00    0.51911332E-06    0.00000000E+00    0.60000000E-01 
    47.0000         7.00000         1.00000           119    24     4     1       0       0       0    0.10900000E+02    0.10000000E+02    0.19708986E+00    0.00000000E+00    0.00000000E+00    0.47119762E-06    0.00000000E+00    0.60000000E-01 
    49.0000         7.00000         1.00000           120    25     4     1       0       0       0    0.10900000E+02    0.10000000E+02    0.19708986E+00    0.00000000E+00    0.00000000E+00    0.62462099E-06    0.00000000E+00    0.60000000E-01 
    51.0000         7.00000         1.00000           121    26     4     1       0       0       0    0.10900000E+02    0.10000000E+02    0.19708986E+00    0.00000000E+00    0.00000000E+00    0.78516796E-06    0.00000000E+00    0.60000000E-01 
    53.0000         7.00000         1.00000           122    27     4     1       0       0       0    0.10900000E+02    0.10000000E+02    0.19708986E+00    0.00000000E+00    0.00000000E+00    0.64982855E-06    0.00000000E+00    0.60000000E-01 
    55.0000         7.00000         1.00000           123    28     4     1       0       0       0    0.10900000E+02    0.10000000E+02    0.19708986E+00    0.00000000E+00    0.00000000E+00    0.60583302E-06    0.00000000E+00    0.60000000E-01 